LAMMPS (2 Aug 2023 - Update 2)
  using 1 OpenMP thread(s) per MPI task
units           real
atom_style      full
dimension 3
boundary        p p p

read_data       ../model_solvation/sol_N10.data
Reading data file ...
  orthogonal box = (-0.2285 0.000499 0.000499) to (22.051501 35.0955 35.0955)
  2 by 4 by 4 MPI processor grid
  reading atoms ...
  1168 atoms
  scanning bonds ...
  6 = max bonds/atom
  scanning angles ...
  6 = max angles/atom
  reading bonds ...
  1325 bonds
  reading angles ...
  1086 angles
Finding 1-2 1-3 1-4 neighbors ...
  special bond factors lj:    0        0        0       
  special bond factors coul:  0        0        0       
     6 = max # of 1-2 neighbors
    15 = max # of 1-3 neighbors
    72 = max # of 1-4 neighbors
    30 = max # of special neighbors
  special bonds CPU = 0.007 seconds
  read_data CPU = 0.114 seconds

# Define groups
group water type 4 5 9     # 4 and 5 are H1 and H2 atoms, 9 is O atom
720 atoms in group water
group mos2  type 6 7 14 15 16 17     # MoS2 backbone
420 atoms in group mos2
group hcro  type 2 3 10 11 12 13     # HCrO4 ions
6 atoms in group hcro
group sol   type 1 2 3 4 5 8 9 10 11 12  13 # solvent and solution
748 atoms in group sol

# Pair style and kspace
pair_style      lj/cut/coul/long 10.0
special_bonds lj 0.0 0.0 0.5 coul 0.0 0.0 0.83333333
Finding 1-2 1-3 1-4 neighbors ...
  special bond factors lj:    0        0        0.5     
  special bond factors coul:  0        0        0.83333333
     6 = max # of 1-2 neighbors
    15 = max # of 1-3 neighbors
    72 = max # of 1-4 neighbors
    30 = max # of special neighbors
  special bonds CPU = 0.001 seconds
pair_modify     mix arithmetic
#kspace_style    pppm 1.0e-4
kspace_style ewald 1e-8

# Pair Coeff
pair_coeff 1 1     0.070   3.5600000   # Cl-Cl
pair_coeff 2 2     0.050   2.5000000   # CR-CR
pair_coeff 3 3     0.001   1.0000000   # H-H
pair_coeff 4 4     0.0     0.0         # H1-H1
pair_coeff 5 5     0.0     0.0         # H2-H2
pair_coeff 6 6     0.0134  4.2000000   # Mo1-Mo1
pair_coeff 7 7     0.0134  4.2000000   # Mo2-Mo2
pair_coeff 8 8     0.0469  2.4300000   # Na-Na
pair_coeff 9 9     0.1521  3.1507      # OW-OW
pair_coeff 10 10   0.1000  3.0000000   # O1-O1
pair_coeff 11 11   0.1000  3.0000000   # O2-O2
pair_coeff 12 12   0.1000  3.0000000   # O3-O3
pair_coeff 13 13   0.1000  3.0000000   # O4-O4
pair_coeff 14 14   0.4610  3.1300000   # S1-S1
pair_coeff 15 15   0.4610  3.1300000   # S2-S2
pair_coeff 16 16   0.4610  3.1300000   # S3-S3
pair_coeff 17 17   0.4610  3.1300000   # S4-S4

bond_style harmonic
bond_coeff 1 1000 2.4127               # Mo-S bond
bond_coeff 2 650 1.600                 # CR-O bond in HCRO4
bond_coeff 3 450 0.600                 # O-H bond  in HCRO4
bond_coeff 4 450 0.957                 # O-H bond  in water

angle_style     harmonic
angle_coeff 1 100 82.38                # Mo-S-Mo angle in MoS2
angle_coeff 2 55 104.52                # O-CR-O angle in HCRO4
angle_coeff 3 80 109.50                # H-O-H angle in water

## Minimize the system first
velocity all create 300.0 12345 dist gaussian mom yes rot yes
min_style cg
minimize 1.0e-4 1.0e-6 1000 10000
Ewald initialization ...
WARNING: System is not charge neutral, net charge = 0.00012 (src/src/kspace.cpp:327)
  using 12-bit tables for long-range coulomb (src/src/kspace.cpp:342)
WARNING: For better accuracy use 'pair_modify table 0' (src/src/kspace.cpp:365)
  G vector (1/distance) = 0.39098632
  estimated absolute RMS force accuracy = 1.3523009e-05
  estimated relative force accuracy = 4.0724139e-08
  KSpace vectors: actual max1d max3d = 6917 17 21437
                  kxmax kymax kzmax  = 11 17 17
Generated 136 of 136 mixed pair_coeff terms from arithmetic mixing rule
Neighbor list info ...
  update: every = 1 steps, delay = 0 steps, check = yes
  max neighbors/atom: 2000, page size: 100000
  master list distance cutoff = 12
  ghost atom cutoff = 12
  binsize = 6, bins = 4 6 6
  1 neighbor lists, perpetual/occasional/extra = 1 0 0
  (1) pair lj/cut/coul/long, perpetual
      attributes: half, newton on
      pair build: half/bin/newton
      stencil: half/bin/3d
      bin: standard
WARNING: Inconsistent image flags (src/src/domain.cpp:815)
Per MPI rank memory allocation (min/avg/max) = 40.34 | 40.45 | 40.68 Mbytes
   Step          Temp          E_pair         E_mol          TotEng         Press     
         0   300            2316274.5      638.83373      2317956.9      23380776     
       225   300           -20633.913      3221.6723     -16368.659      85.270692    
Loop time of 3.74688 on 32 procs for 225 steps with 1168 atoms

98.4% CPU use with 32 MPI tasks x 1 OpenMP threads

Minimization stats:
  Stopping criterion = energy tolerance
  Energy initial, next-to-last, final = 
        2316913.316859  -17410.6087702554  -17412.2407106239
  Force two-norm initial, final = 16043502 85.378303
  Force max component initial, final = 6987230.2 22.57496
  Final line search alpha, max atom move = 0.0018739746 0.042304901
  Iterations, force evaluations = 225 400

MPI task timing breakdown:
Section |  min time  |  avg time  |  max time  |%varavg| %total
---------------------------------------------------------------
Pair    | 0.00011099 | 0.14911    | 0.6333     |  58.4 |  3.98
Bond    | 0.0001292  | 0.0020569  | 0.0061202  |   4.6 |  0.05
Kspace  | 1.5352     | 1.901      | 2.6713     |  26.9 | 50.74
Neigh   | 0.013872   | 0.014005   | 0.014132   |   0.1 |  0.37
Comm    | 0.3231     | 1.0968     | 1.8303     |  61.5 | 29.27
Output  | 0          | 0          | 0          |   0.0 |  0.00
Modify  | 0          | 0          | 0          |   0.0 |  0.00
Other   |            | 0.5839     |            |       | 15.58

Nlocal:           36.5 ave         129 max           0 min
Histogram: 17 7 0 0 0 0 0 0 2 6
Nghost:        1582.81 ave        1722 max        1412 min
Histogram: 8 0 0 0 0 11 5 0 0 8
Neighs:        12214.5 ave       57270 max           0 min
Histogram: 24 0 0 0 0 2 1 1 2 2

Total # of neighbors = 390865
Ave neighs/atom = 334.64469
Ave special neighs/atom = 10.847603
Neighbor list builds = 10
Dangerous builds = 0

# *************** Setting ******************************
# Neighbor settings
#neigh_modify delay 0 every 1 check yes
neigh_modify    delay 5 every 1

# Define SHAKE constraints for water (O-H bonds and H-O-H angle)
fix spce_model water shake 0.0001 20 0 b 4 a 2
Finding SHAKE clusters ...
       0 = # of size 2 clusters
     240 = # of size 3 clusters
       0 = # of size 4 clusters
       0 = # of frozen angles
  find clusters CPU = 0.005 seconds

# Fix MoS2 as rigid (zero force and velocity)
fix mos_hold mos2 setforce 0.0 0.0 0.0
velocity mos2 set 0.0 0.0 0.0

# Define electric field along x direction (0.001 kcal/mol·e·Å)
#fix fix_efield sol efield 0.001 0.0 0.0
# Define velocity field along x direction (0.00002A/fs=0.02A/ps=2nm/ns)
#velocity hcro set 0.0002 0.0 0.0 sum yes
# Define acceleration/gravity field along x direction (unit kcal/g/A = 4.18*10^7 nm/ns^2)
fix 1 sol gravity 0.04 vector 1 0 0

# Set timestep
reset_timestep  0
timestep        1  # fs
fix fix_nvt all nvt temp 300.0 300.0 100.0

# Thermostat output
thermo          100
thermo_style    custom step temp etotal press
# dump every 100fs = 0.1ps
dump d1 all custom 100 dump.lammpstrj id type mol x y z q

# Run for 5 ns (5,000,000 steps)
run 5000000
Ewald initialization ...
  using 12-bit tables for long-range coulomb (src/src/kspace.cpp:342)
WARNING: For better accuracy use 'pair_modify table 0' (src/src/kspace.cpp:365)
  G vector (1/distance) = 0.39098632
  estimated absolute RMS force accuracy = 1.3523009e-05
  estimated relative force accuracy = 4.0724139e-08
  KSpace vectors: actual max1d max3d = 6917 17 21437
                  kxmax kymax kzmax  = 11 17 17
Generated 136 of 136 mixed pair_coeff terms from arithmetic mixing rule
WARNING: Inconsistent image flags (src/src/domain.cpp:815)
Per MPI rank memory allocation (min/avg/max) = 40.09 | 40.17 | 40.32 Mbytes
   Step          Temp          TotEng         Press     
         0   224.87106     -16949.8        977.56701    
       100   130.46905     -16589.973      1054.6147    
       200   166.37713     -16424.551      1641.7357    
       300   186.7057      -16230.901      2301.8239    
       400   229.12324     -16025.911      2799.8781    
       500   266.59462     -15832.48       3206.3178    
       600   282.64194     -15652.67       4166.8309    
       700   324.56578     -15519.788      4293.3322    
       800   319.82162     -15503.902      4088.6196    
       900   311.14732     -15577.521      3950.5872    
      1000   297.44645     -15662.522      3186.737     
      1100   291.72055     -15714.007      2859.3021    
      1200   289.70657     -15709.728      2905.997     
      1300   301.96051     -15643.919      2840.8213    
      1400   314.68598     -15573.068      3494.4571    
      1500   310.15116     -15574.336      3808.4793    
      1600   309.9322      -15636.849      3065.2817    
      1700   300.53142     -15696.921      2779.4581    
      1800   292.55969     -15716.03       2844.1862    
      1900   285.22417     -15691.208      3140.1392    
      2000   299.16377     -15643.11       3281.5193    
      2100   311.28458     -15631.784      3025.2146    
      2200   306.86883     -15634.154      3344.3321    
      2300   300.40388     -15665.59       3193.4792    
      2400   295.41887     -15704.191      2968.2668    
      2500   292.59339     -15698.603      3307.99      
      2600   290.43048     -15684.252      2984.9254    
      2700   298.7154      -15666.832      2942.4208    
      2800   305.54471     -15667.506      2715.2261    
      2900   306.65202     -15698.474      2796.3384    
      3000   296.84624     -15722.29       2733.8597    
      3100   276.35561     -15712.267      3058.9237    
      3200   312.08785     -15667.987      3155.5354    
      3300   311.91269     -15627.298      2883.8171    
      3400   318.11558     -15623.946      3120.2033    
      3500   295.01827     -15681.146      3063.4854    
      3600   307.60296     -15740.017      2001.6366    
      3700   287.0789      -15761.024      2769.2572    
      3800   296.82846     -15719.26       2849.3371    
      3900   315.28187     -15664.536      2609.6729    
      4000   306.59696     -15656.689      3124.804     
      4100   296.26841     -15686.85       2739.3241    
      4200   299.12387     -15737.111      2721.8716    
      4300   284.30693     -15757.861      2539.7703    
      4400   305.18583     -15739.44       2297.4139    
      4500   299.74351     -15695.572      2799.482     
      4600   307.58732     -15662.277      2931.6749    
      4700   304.79791     -15693.083      2802.9517    
      4800   291.18171     -15752.645      2527.6577    
      4900   289.3718      -15760.157      2508.4861    
      5000   304.26389     -15729.193      2338.2258    
      5100   313.84572     -15691.378      2946.1423    
      5200   302.61919     -15685.141      2737.054     
      5300   282.80871     -15751.224      2693.6685    
      5400   291.43108     -15768.588      2284.4535    
      5500   287.6349      -15747.566      3081.577     
      5600   295.81463     -15706.977      2714.567     
      5700   309.98948     -15693.16       2680.8731    
      5800   302.1944      -15724.737      2179.4186    
      5900   290.38053     -15786.275      2447.0683    
      6000   302.84511     -15781.5        2312.1625    
      6100   306.06832     -15761.68       1625.739     
      6200   311.92285     -15732.449      2036.2012    
      6300   306.2504      -15693.272      2833.9669    
      6400   306.91104     -15695.737      2788.6677    
      6500   294.06455     -15750.759      2266.5391    
      6600   293.84608     -15760.68       2147.7127    
      6700   306.1295      -15752.078      2026.7999    
      6800   294.70467     -15731.968      2694.7829    
      6900   307.80244     -15688.01       2735.798     
      7000   301.97242     -15671.753      2876.355     
      7100   302.19869     -15722.414      2961.8079    
      7200   311.88402     -15741.173      2497.7489    
      7300   298.37527     -15756.021      2604.8713    
      7400   300.39871     -15772.937      2250.6854    
      7500   290.96763     -15772.651      2750.4842    
      7600   294.4991      -15787.335      2707.1966    
      7700   290.44596     -15793.033      2266.9191    
      7800   304.39015     -15748.808      2482.9445    
      7900   320.58732     -15718.555      2295.8002    
      8000   313.78785     -15733.848      2205.3768    
      8100   299.45038     -15773.969      2120.9815    
      8200   290.35445     -15789.603      2453.9768    
      8300   286.29447     -15802.838      2182.5181    
      8400   296.27592     -15788.99       2227.1024    
      8500   304.4481      -15725.883      2378.0168    
      8600   318.33052     -15684.66       2456.3717    
      8700   310.01414     -15729.808      2003.998     
      8800   307.49359     -15777.053      1978.6297    
      8900   296.81944     -15790.694      2310.6686    
      9000   301.07975     -15777.894      1951.9329    
      9100   308.86985     -15737.904      1640.3181    
      9200   306.38353     -15688.294      2405.3994    
      9300   314.38107     -15708.441      2105.5202    
      9400   293.28327     -15743.728      2302.1737    
      9500   299.99694     -15756.28       2536.735     
      9600   283.15009     -15786.296      2498.1844    
      9700   288.6247      -15802.918      2056.6506    
      9800   316.27969     -15795.761      2120.0283    
      9900   301.2908      -15831.034      2400.3066    
     10000   294.14049     -15849.964      1773.1649    
     10100   288.63406     -15828.304      2279.4662    
     10200   305.19002     -15783.98       2331.3096    
     10300   295.98863     -15767.211      2429.5757    
     10400   288.05462     -15778.289      2489.1765    
     10500   282.42975     -15806.431      2447.6158    
     10600   285.23183     -15817.037      2469.611     
     10700   298.47645     -15763.168      2360.3892    
     10800   306.2216      -15718.76       2463.4746    
     10900   301.64947     -15738.768      2784.4185    
     11000   296.35079     -15774.048      2800.881     
     11100   302.94007     -15783.204      2376.5205    
     11200   295.45906     -15789.692      2175.7344    
     11300   299.67637     -15776.777      2631.636     
     11400   307.308       -15715.921      2446.1059    
     11500   311.14355     -15703.383      2321.6548    
     11600   293.24968     -15745.655      3097.4917    
     11700   293.69948     -15777.154      2273.167     
     11800   289.27198     -15761.69       2138.8088    
     11900   289.99282     -15741.034      2618.3451    
     12000   315.13137     -15712.964      2690.4016    
     12100   305.99216     -15726.368      2508.6498    
     12200   284.07397     -15777.332      2531.3651    
     12300   297.05137     -15792.767      2412.8428    
     12400   304.37612     -15793.065      2110.5422    
     12500   292.60263     -15747.822      2648.8126    
     12600   314.32894     -15703.772      2921.79      
     12700   302.35583     -15717.223      2758.1171    
     12800   307.64885     -15736.938      2615.0863    
     12900   289.65988     -15740.818      2566.854     
     13000   312.94073     -15734.688      2314.4452    
     13100   295.33902     -15722.238      2684.5401    
     13200   298.11904     -15694.339      2914.4969    
     13300   317.15854     -15674.431      2553.5711    
     13400   296.94307     -15715.745      2583.2063    
     13500   299.42829     -15768.227      2664.5258    
     13600   280.88915     -15783.087      2676.3987    
     13700   287.40454     -15764.208      2857.5118    
     13800   288.42107     -15711.327      3011.3959    
     13900   309.56141     -15681.394      2645.9114    
     14000   305.03932     -15689.53       2925.4362    
     14100   291.82751     -15705.715      2946.6282    
     14200   293.21613     -15722.574      2750.3824    
     14300   291.62145     -15742.493      2620.663     
     14400   291.7206      -15777.105      2305.7141    
     14500   297.79786     -15832.809      2269.5849    
     14600   284.37803     -15814.524      2330.991     
     14700   290.74312     -15759.659      2927.5014    
     14800   296.05623     -15721.513      2326.7208    
     14900   295.04666     -15691.333      2635.1386    
     15000   295.83824     -15704.173      2683.9458    
     15100   295.21238     -15739.717      3072.0436    
     15200   295.72083     -15757.335      2820.4975    
     15300   280.66323     -15746.435      2333.8336    
     15400   306.90417     -15727.495      2519.1402    
     15500   303.38254     -15729.871      2609.7836    
     15600   298.89943     -15758.5        2424.6996    
     15700   293.82563     -15807.137      1958.7112    
     15800   291.23518     -15786.024      2293.8572    
     15900   313.93555     -15730.676      2485.1669    
     16000   289.68511     -15720.116      2575.8066    
     16100   305.47811     -15714.63       3007.7798    
     16200   291.58171     -15743.458      2756.6426    
     16300   288.76004     -15769.985      2777.4146    
     16400   274.3477      -15769.028      3046.4795    
     16500   296.93679     -15706.57       2936.8053    
     16600   313.03686     -15658.936      2919.9182    
     16700   308.5848      -15668.415      2838.378     
     16800   293.48615     -15738.827      2503.348     
     16900   297.34634     -15762.911      2596.1793    
     17000   285.74096     -15742.633      2521.9383    
     17100   302.82565     -15715.318      2608.3888    
     17200   311.68872     -15716.201      2395.4131    
     17300   282.44743     -15779.989      2333.4707    
     17400   294.09935     -15789.488      1956.8687    
     17500   293.92319     -15768.918      2049.2962    
     17600   310.53263     -15737.067      2231.5955    
     17700   309.49485     -15734.136      1665.5952    
     17800   300.30705     -15784.453      1995.3481    
     17900   301.76212     -15804.894      1584.4953    
     18000   304.24835     -15801.116      2023.6927    
     18100   290.54885     -15796.174      1559.9098    
     18200   317.32265     -15766.801      1629.4852    
     18300   322.56181     -15744.12       2358.0864    
     18400   305.10499     -15788.678      2096.0417    
     18500   299.87084     -15824.199      1614.6336    
     18600   314.12487     -15818.368      1727.1467    
     18700   305.74191     -15793.767      1622.0635    
     18800   295.85613     -15754.192      1839.2063    
     18900   314.3904      -15690.324      1536.8362    
     19000   320.00521     -15716.008      2236.5305    
     19100   303.16845     -15773.515      1693.6736    
     19200   299.06695     -15792.465      1857.7481    
     19300   290.05478     -15785.808      1911.5587    
     19400   308.32807     -15774.025      1622.4484    
     19500   303.60379     -15768.229      1797.1604    
     19600   296.39694     -15799.676      2331.5714    
     19700   306.30772     -15832.983      1195.6201    
     19800   299.34464     -15839.859      1647.5877    
     19900   305.47741     -15785.575      1577.6319    
     20000   317.23856     -15763.306      2121.4756    
     20100   303.06776     -15791.497      1750.4799    
     20200   310.00771     -15810.961      1723.8483    
     20300   297.22088     -15817.229      1902.1989    
     20400   293.68488     -15809.63       1723.6066    
     20500   308.65709     -15803.916      1581.1018    
     20600   300.32181     -15802.402      1760.4101    
     20700   294.42745     -15807.861      2035.8892    
     20800   306.97152     -15806.686      1587.0378    
     20900   289.53846     -15806.611      2058.9547    
     21000   288.55705     -15793.701      2244.2661    
     21100   310.92355     -15762.121      1821.9091    
     21200   308.87686     -15743.101      2331.4096    
     21300   297.24455     -15797.85       2016.0893    
     21400   304.51309     -15835.509      1644.8812    
     21500   305.88608     -15830.604      1654.3941    
     21600   300.08871     -15828.843      1681.1359    
     21700   304.23098     -15812.28       1696.6521    
     21800   295.81436     -15791.932      2302.9184    
     21900   315.60821     -15776.219      2188.71      
     22000   311.02075     -15790.142      1662.7068    
     22100   298.98057     -15846.014      1584.2382    
     22200   305.69655     -15857.547      1257.3314    
     22300   303.3391      -15822.941      1740.9923    
     22400   306.38757     -15781.725      1969.3293    
     22500   310.69347     -15747.421      1896.5933    
     22600   320.97256     -15702.09       2105.2703    
     22700   306.39762     -15757.385      1720.7264    
     22800   305.16117     -15798.552      1768.8009    
     22900   313.81075     -15835.232      1578.2776    
     23000   288.69608     -15867.593      1777.6252    
     23100   299.47654     -15862.647      1228.3393    
     23200   300.44859     -15808.699      1869.027     
     23300   313.94078     -15788.849      1819.9729    
     23400   304.0488      -15806.33       1825.4641    
     23500   289.34218     -15831.387      2190.9271    
     23600   299.51288     -15839.987      1425.086     
     23700   280.02371     -15861.98       1752.3406    
     23800   298.95133     -15843.008      1560.424     
     23900   299.54664     -15792.43       1876.1482    
     24000   310.58931     -15772.784      2034.6519    
     24100   298.62215     -15797.216      2169.4703    
     24200   299.23307     -15858.3        1825.9172    
     24300   283.76383     -15865.664      1918.6813    
     24400   293.10643     -15844.767      1742.8537    
     24500   295.12405     -15824.906      2359.375     
     24600   311.88314     -15806.159      1915.6019    
     24700   311.17948     -15780.846      1827.452     
     24800   307.93321     -15769.263      1827.3235    
     24900   307.07283     -15814.45       1666.5938    
     25000   299.99963     -15850.688      1769.8639    
     25100   290.22878     -15852.051      1896.0813    
     25200   302.73139     -15832.97       1936.1301    
     25300   291.71596     -15776.274      2181.8601    
     25400   314.14911     -15755.129      2509.1411    
     25500   292.0464      -15780.878      2587.4322    
     25600   315.3958      -15796.939      2101.4465    
     25700   294.23593     -15808.028      2434.7182    
     25800   283.02614     -15814.653      2325.4716    
     25900   319.857       -15784.439      1432.0576    
     26000   308.62049     -15753.818      2442.54      
     26100   298.9794      -15761.399      2187.5854    
     26200   307.92115     -15812.148      2277.6596    
     26300   291.15179     -15827.744      2117.1014    
     26400   312.06852     -15812.501      2046.9908    
     26500   300.05061     -15795.862      2089.6351    
     26600   313.77796     -15758.597      2342.5848    
     26700   322.62396     -15739.132      2493.294     
     26800   291.13026     -15793.888      2632.4483    
     26900   291.42711     -15814.209      2068.553     
     27000   297.89484     -15811.172      2429.778     
     27100   313.78579     -15792.577      1931.7959    
     27200   310.70295     -15787.001      2251.7761    
     27300   291.6078      -15824.121      2459.386     
     27400   297.4637      -15861.938      1727.9666    
     27500   279.0021      -15858.913      2035.2406    
     27600   303.4925      -15817.045      2805.8051    
     27700   301.36534     -15785.219      2279.5075    
     27800   297.22019     -15781.596      2684.6339    
     27900   313.07367     -15790.374      2323.1633    
     28000   292.35751     -15788.097      2498.8763    
     28100   305.11441     -15791.496      2434.7773    
     28200   304.4829      -15805.984      2191.4931    
     28300   299.64288     -15838.39       1969.4533    
     28400   301.76131     -15856.142      1907.2301    
     28500   292.4147      -15844.124      2248.0343    
     28600   303.26437     -15787.219      2500.2714    
     28700   300.86513     -15773.345      2299.9009    
     28800   300.90639     -15799.253      2091.0721    
     28900   293.18207     -15815.827      1769.4877    
     29000   298.54848     -15807.843      1809.0357    
     29100   302.71499     -15746.812      2177.3864    
     29200   330.31857     -15729.206      1956.252     
     29300   303.12744     -15778.004      1918.7724    
     29400   292.04775     -15806.139      1997.1429    
     29500   287.71449     -15794.089      2353.8409    
     29600   299.66919     -15772.362      2282.5151    
     29700   309.30756     -15728.065      2801.868     
     29800   313.47922     -15706.683      2502.7705    
     29900   322.8296      -15763.265      2197.1751    
     30000   278.27106     -15800.474      2062.5655    
     30100   282.22008     -15799.047      2415.4156    
     30200   304.26268     -15784.412      2248.829     
     30300   312.45935     -15747.423      2176.8239    
     30400   316.16017     -15713.907      2329.2871    
     30500   308.96185     -15754.759      2304.153     
     30600   298.819       -15798.512      2329.811     
     30700   295.49767     -15799.283      2359.5847    
     30800   303.24403     -15770.16       2536.5248    
     30900   304.07869     -15759.032      2335.683     
     31000   296.9374      -15755.765      2533.572     
     31100   290.53726     -15803.475      2455.1928    
     31200   297.63188     -15840.62       1670.2589    
     31300   300.37061     -15833.407      2133.4015    
     31400   318.01366     -15788.737      2172.4659    
     31500   309.57299     -15763.916      2349.4435    
     31600   289.32411     -15786.149      1943.3983    
     31700   317.87736     -15795.558      1816.579     
     31800   292.47615     -15811.679      2509.3264    
     31900   294.94398     -15827.219      1764.4626    
     32000   294.38925     -15820.803      1863.4922    
     32100   309.63681     -15770.667      2045.9701    
     32200   294.75844     -15764.629      2008.8796    
     32300   307.94626     -15802.876      1986.8766    
     32400   301.79245     -15853.274      1684.8093    
     32500   305.02347     -15850.365      1405.2628    
     32600   292.66813     -15823.176      1868.0601    
     32700   293.44165     -15793.679      2105.865     
     32800   297.66321     -15780.316      2104.138     
     32900   291.94883     -15794.163      2438.525     
     33000   290.17243     -15806.962      2675.8481    
     33100   312.27565     -15791.194      1747.4191    
     33200   304.03402     -15743.301      1924.1606    
     33300   302.11124     -15764.988      1920.5582    
     33400   301.12135     -15812.433      2232.8915    
     33500   294.95632     -15823.812      2081.1508    
     33600   293.25048     -15826.762      2278.5889    
     33700   299.98553     -15827.574      1706.9402    
     33800   314.3171      -15795.292      1746.2707    
     33900   323.19761     -15772.654      2327.3575    
     34000   307.62559     -15799.997      2157.9958    
     34100   295.26395     -15843.241      1744.8826    
     34200   287.36903     -15829.055      2429.7531    
     34300   308.6081      -15815.41       2009.6473    
     34400   304.5643      -15761.773      1895.6298    
     34500   306.94948     -15728.065      2113.6014    
     34600   313.89644     -15738.144      2357.4829    
     34700   308.09438     -15776.383      1671.9528    
     34800   296.72998     -15797.88       2066.5926    
     34900   287.05091     -15804.477      2530.3878    
     35000   300.63234     -15811.436      1976.2923    
     35100   282.50143     -15865.32       1676.8307    
     35200   297.71475     -15878.969      1648.6516    
     35300   290.70718     -15827.815      2278.1908    
     35400   299.63607     -15797.259      2702.9016    
     35500   295.7557      -15790.469      2343.4215    
     35600   296.81815     -15794.852      2371.4133    
     35700   312.24871     -15780.898      1872.1692    
     35800   310.66127     -15782.715      2085.622     
     35900   292.85484     -15830.857      2076.382     
     36000   301.24101     -15835.074      1463.707     
     36100   301.37757     -15810.656      1702.1235    
     36200   309.74957     -15778.861      1930.7172    
     36300   311.23475     -15740.456      1693.3338    
     36400   303.20835     -15756.939      1825.4697    
     36500   312.15222     -15810.107      2120.8126    
     36600   295.654       -15815.588      2138.5789    
     36700   295.39777     -15809.778      1793.5636    
     36800   300.15854     -15795.693      2040.0934    
     36900   312.43206     -15763.506      1737.9025    
     37000   315.06087     -15732.417      1998.1698    
     37100   308.15561     -15775.24       2240.5627    
     37200   295.23385     -15830.816      1667.8656    
     37300   290.21059     -15810.723      2108.7865    
     37400   293.66573     -15771.15       1594.9666    
     37500   304.7093      -15750.528      1862.2008    
     37600   316.7257      -15766.17       1975.4885    
     37700   291.41143     -15817.289      1774.3606    
     37800   302.69137     -15832.896      1689.2739    
     37900   295.05563     -15827.146      1929.805     
     38000   313.10394     -15804.306      1723.3756    
     38100   314.11829     -15776.431      1722.0566    
     38200   312.12221     -15742.434      1867.087     
     38300   301.32346     -15707.463      2417.2687    
     38400   308.3081      -15750.914      1984.7182    
     38500   300.42796     -15809.331      1577.6384    
     38600   293.48687     -15817.028      1816.02      
     38700   292.65454     -15811.831      1998.0813    
     38800   297.22133     -15791.965      2047.2529    
     38900   314.89261     -15754.172      1902.9338    
     39000   320.9714      -15727.386      2256.9696    
     39100   310.90727     -15771.981      2133.567     
     39200   303.80429     -15808.458      1935.3523    
     39300   292.42821     -15798.204      2016.1818    
     39400   300.639       -15766.244      2405.1905    
     39500   294.74127     -15729.433      2405.2012    
     39600   303.94781     -15729.573      2622.444     
     39700   302.99743     -15791.805      2172.8339    
     39800   291.66397     -15808.25       2042.8412    
     39900   301.45022     -15785.114      2144.0247    
     40000   296.32996     -15746.725      1891.4389    
     40100   312.58601     -15744.189      2147.4974    
     40200   296.05358     -15806.888      2071.936     
     40300   284.60781     -15817.819      1994.8266    
     40400   279.36904     -15779.182      2651.9942    
     40500   308.68578     -15738.282      2256.0417    
     40600   310.3785      -15733.836      2061.8625    
     40700   301.72466     -15745.845      2537.5102    
     40800   303.76615     -15770.597      2094.5916    
     40900   295.01263     -15816.98       1921.9961    
     41000   291.85058     -15816.995      2285.1973    
     41100   281.19641     -15796.082      2781.0252    
     41200   319.28638     -15747.638      2247.2056    
     41300   303.48096     -15756.311      2407.4708    
     41400   285.79389     -15791.225      2128.9296    
     41500   303.98692     -15798.773      1596.9386    
     41600   289.13629     -15786.367      2243.2329    
     41700   295.86064     -15717.661      2894.1649    
     41800   317.33919     -15705.162      1987.7063    
     41900   308.95113     -15730.047      2513.1107    
     42000   298.51895     -15772.415      2008.6537    
     42100   300.33773     -15787.334      1895.9972    
     42200   306.31042     -15786.062      2177.7984    
     42300   294.23331     -15784.273      2318.6066    
     42400   287.28739     -15781.864      2791.6249    
     42500   300.49042     -15763.78       1996.0305    
     42600   299.04849     -15743.173      2107.1006    
     42700   298.79792     -15729.151      2299.2582    
     42800   305.06361     -15756.808      2184.8797    
     42900   291.42166     -15803.849      2237.4845    
     43000   294.85024     -15822.394      2261.9472    
     43100   298.82337     -15801.725      1943.6403    
     43200   309.28053     -15756.447      2149.8049    
     43300   314.30358     -15705.476      2184.2792    
     43400   318.63636     -15666.752      2163.3083    
     43500   298.44152     -15740.069      2499.5069    
     43600   297.71294     -15780.343      1929.131     
     43700   312.88136     -15816.332      1692.1934    
     43800   286.59029     -15855.912      2115.9777    
     43900   309.08955     -15836.448      2189.3416    
     44000   305.66048     -15796.871      2454.166     
     44100   303.3274      -15771.081      2103.8524    
     44200   302.8431      -15802.086      2408.9108    
     44300   284.02837     -15845.452      1927.3913    
     44400   280.62883     -15828.03       2114.5324    
     44500   306.20556     -15793.836      2041.264     
     44600   300.42593     -15781.227      2452.6021    
     44700   302.04357     -15791.585      2037.1519    
     44800   295.29794     -15814.342      2081.062     
     44900   306.59862     -15815.092      2320.0671    
     45000   304.15705     -15814.737      1998.2327    
     45100   293.12871     -15818.133      2343.7352    
     45200   286.01866     -15795.184      2558.2853    
     45300   314.75153     -15756.035      1945.7739    
     45400   305.39209     -15781.333      2483.2406    
     45500   281.75794     -15836.62       1923.1678    
     45600   297.10027     -15823.415      2002.3175    
     45700   283.0663      -15793.132      2175.4121    
     45800   300.39101     -15755.997      2366.4566    
     45900   293.09398     -15735.158      2534.3203    
     46000   300.11122     -15755.878      2364.3098    
     46100   297.15318     -15797.299      1898.7519    
     46200   300.97294     -15820.686      1735.4854    
     46300   302.64014     -15814.471      2142.7849    
     46400   310.01462     -15809.013      1665.1331    
     46500   302.23638     -15805.701      1959.2062    
     46600   305.86673     -15792.818      2089.2594    
     46700   301.68302     -15769.782      1996.3137    
     46800   297.81103     -15743.846      2326.4475    
     46900   298.40421     -15702.866      2905.915     
     47000   309.6618      -15715.154      2136.3671    
     47100   304.30595     -15777.506      2040.0858    
     47200   303.1653      -15804.284      1674.4164    
     47300   299.05378     -15797.994      1869.1776    
     47400   304.62739     -15760.354      2251.3467    
     47500   314.58174     -15708.63       2142.2389    
     47600   299.45312     -15733.461      2426.9342    
     47700   314.12975     -15785.185      1804.5681    
     47800   306.89394     -15802.353      1783.8927    
     47900   293.73346     -15807.58       2404.6225    
     48000   295.35577     -15783.501      2127.8349    
     48100   315.58829     -15748.914      1991.6391    
     48200   305.58944     -15716.646      2393.4311    
     48300   311.13417     -15754.585      1845.8979    
     48400   302.28752     -15811.527      1936.324     
     48500   283.63743     -15814.959      2289.6274    
     48600   296.32155     -15778.747      2420.2846    
     48700   299.32567     -15747.432      2628.9786    
     48800   313.67913     -15723.16       2774.4324    
     48900   311.22451     -15731.815      2156.2228    
     49000   286.77596     -15777.795      2076.8136    
     49100   306.25727     -15812.503      1719.6411    
     49200   291.92656     -15830.984      1806.7       
     49300   296.78168     -15811.707      1867.6859    
     49400   305.90085     -15752.357      2028.5958    
     49500   319.47794     -15743.653      2031.4109    
     49600   307.83682     -15767.848      2246.7303    
     49700   296.95275     -15788.496      2586.8176    
     49800   294.46073     -15774.517      2715.1404    
     49900   298.56747     -15758.979      2416.2078    
     50000   314.9872      -15753.948      2266.3207    
     50100   307.38264     -15709.161      1955.5301    
     50200   307.67503     -15674.765      3094.1352    
     50300   284.60862     -15723.942      3004.6209    
     50400   297.69816     -15767.463      2078.6079    
     50500   293.63662     -15785.472      1993.5282    
     50600   297.2414      -15806.816      2256.4574    
     50700   287.45275     -15798.353      2085.8326    
     50800   288.53364     -15738.942      2577.7247    
     50900   307.49402     -15689.246      2605.5997    
     51000   285.8633      -15718.404      2952.2601    
     51100   299.80886     -15775.909      2046.111     
     51200   307.71603     -15794.84       2084.4056    
     51300   285.88219     -15797.545      2300.5599    
     51400   303.88253     -15823.531      1853.7039    
     51500   291.80007     -15854.13       1840.5406    
     51600   301.5575      -15840.533      2024.4344    
     51700   295.3962      -15832.205      1788.5141    
     51800   302.74716     -15828.599      1341.9688    
     51900   292.87583     -15794.763      2088.9418    
     52000   325.531       -15736.703      2011.6205    
     52100   317.42852     -15750.083      2081.9894    
     52200   316.35526     -15779.865      1860.3119    
     52300   300.75336     -15798.983      1899.5608    
     52400   281.89343     -15814.322      1980.5881    
     52500   302.37232     -15798.017      2135.0834    
     52600   322.39692     -15756.616      2236.5227    
     52700   309.07485     -15748.665      1760.1164    
     52800   301.87343     -15770.628      2211.2345    
     52900   299.89943     -15792.631      1884.8371    
     53000   307.57507     -15798.366      1491.5911    
     53100   305.54735     -15795.554      1867.4795    
     53200   319.0697      -15795.917      1645.0761    
     53300   295.98317     -15840.149      1834.9698    
     53400   286.83228     -15848.167      1541.9732    
     53500   300.87934     -15802.405      1745.7085    
     53600   303.68976     -15774.176      2274.5359    
     53700   291.15651     -15760.556      1988.1009    
     53800   295.80931     -15754.01       2255.5957    
     53900   286.74304     -15787.159      2165.3237    
     54000   291.98458     -15835.655      1960.4492    
     54100   291.89882     -15843.147      1500.9832    
     54200   304.83896     -15791.907      2210.7125    
     54300   320.08141     -15757.514      1864.3017    
     54400   298.72923     -15789.357      2253.827     
     54500   299.78659     -15827.754      1567.1686    
     54600   283.04757     -15836.221      2074.2194    
     54700   289.84346     -15820.289      2279.4144    
     54800   310.90144     -15750.8        2420.4357    
     54900   303.95412     -15739.327      1897.8219    
     55000   321.79773     -15765.251      1692.0287    
     55100   301.2217      -15806.722      1684.3866    
     55200   296.34828     -15806.186      1588.6455    
     55300   292.70342     -15798.801      1481.5645    
     55400   308.25681     -15795.092      2042.3315    
     55500   287.90825     -15812.907      2437.0866    
     55600   306.80554     -15852.752      1503.7674    
     55700   284.6878      -15882.463      1531.4472    
     55800   305.45057     -15855.133      1447.2646    
     55900   291.63726     -15785.124      2135.1515    
     56000   309.21735     -15770.639      2175.6862    
     56100   310.07834     -15801.327      1862.0323    
     56200   286.76308     -15837.265      1767.3272    
     56300   286.44972     -15829.384      1879.7216    
     56400   301.20109     -15807.844      2081.9561    
     56500   303.08338     -15800.162      2022.829     
     56600   295.26262     -15798.923      2185.5072    
     56700   296.26069     -15809.192      1745.9794    
     56800   305.59572     -15815.892      1343.6132    
     56900   299.96544     -15810.335      1505.531     
     57000   314.03439     -15803.658      1627.5264    
     57100   300.17533     -15820.612      1861.9795    
     57200   279.0786      -15860.062      2233.3476    
     57300   295.38485     -15884.56       1560.0271    
     57400   303.89168     -15846.279      1502.837     
     57500   302.10024     -15802.174      1708.3004    
     57600   303.62561     -15782.637      1837.3555    
     57700   302.35596     -15793.465      1769.2794    
     57800   308.29821     -15841.469      1723.1627    
     57900   289.85379     -15888.556      1486.444     
     58000   291.45771     -15889.692      694.85466    
     58100   302.81461     -15861.484      1357.9762    
     58200   303.97263     -15839.031      1074.2065    
     58300   298.46877     -15831.778      1601.4888    
     58400   303.90519     -15849.73       1261.2921    
     58500   292.16673     -15911.66       1363.4292    
     58600   291.13425     -15904.186      1221.7724    
     58700   286.89219     -15872.738      951.7874     
     58800   303.24109     -15841.951      998.87574    
     58900   291.54098     -15814.011      1614.0752    
     59000   310.35911     -15812.461      1422.2484    
     59100   303.96204     -15824.471      1158.0355    
     59200   293.22737     -15867.853      1585.2313    
     59300   292.23635     -15890.565      905.54068    
     59400   309.28971     -15848.079      1568.394     
     59500   311.79115     -15791.229      1882.8284    
     59600   310.9578      -15796.243      1943.9062    
     59700   310.54594     -15817.051      1572.4267    
     59800   298.71742     -15848.815      1535.0413    
     59900   304.67645     -15876.527      905.46376    
     60000   289.54487     -15886.074      1273.4769    
     60100   291.16233     -15907.745      1182.9217    
     60200   289.14377     -15916.574      813.09877    
     60300   292.71074     -15859.917      1503.799     
     60400   302.65141     -15835.466      1510.6349    
     60500   300.31585     -15832.949      1157.3171    
     60600   291.0521      -15841.435      1692.746     
     60700   295.91656     -15882.482      1211.7812    
     60800   275.60104     -15886.382      962.28795    
     60900   293.00317     -15830.068      1507.3878    
     61000   300.22988     -15816.941      1240.7635    
     61100   311.85521     -15829.014      1466.9652    
     61200   301.66557     -15863.252      1246.2982    
     61300   287.74858     -15875.919      1745.302     
     61400   305.22834     -15850.055      1406.1679    
     61500   303.32635     -15798.406      1536.0815    
     61600   315.3933      -15814.294      1147.2626    
     61700   313.47913     -15855.483      1198.7808    
     61800   285.90709     -15874.373      1585.4721    
     61900   299.08037     -15877.285      1094.3047    
     62000   291.62588     -15869.452      1938.8776    
     62100   305.70677     -15824.318      1819.8511    
     62200   314.09353     -15779.105      1423.599     
     62300   294.68652     -15808.239      1362.9194    
     62400   302.21998     -15836.358      1328.2201    
     62500   303.11775     -15854.09       991.87841    
     62600   309.44666     -15855.723      1601.5959    
     62700   287.31449     -15853.95       1792.5025    
     62800   297.07491     -15815.545      1584.733     
     62900   293.99076     -15787.986      1968.481     
     63000   317.28527     -15778.394      1675.9056    
     63100   298.83249     -15821.286      1776.7207    
     63200   290.87857     -15862.895      1854.8166    
     63300   298.78249     -15857.417      1107.9265    
     63400   306.49024     -15833.07       1288.0939    
     63500   306.97708     -15823.024      1570.9036    
     63600   288.81024     -15845.087      1362.4088    
     63700   295.18843     -15886.422      1406.1607    
     63800   293.05454     -15872.946      1394.21      
     63900   307.08744     -15827.102      2160.1745    
     64000   289.96676     -15810.974      1667.555     
     64100   300.78077     -15806.063      1962.1213    
     64200   299.69702     -15826.915      1310.6804    
     64300   296.08517     -15902.729      1353.6797    
     64400   311.80693     -15894.048      803.54192    
     64500   295.67852     -15848.656      1190.1886    
     64600   311.6821      -15815.988      1210.6215    
     64700   301.99182     -15824.358      1556.506     
     64800   306.19083     -15852.534      1290.0265    
     64900   294.70206     -15893.844      964.08869    
     65000   290.42433     -15934.05       911.73582    
     65100   287.50429     -15899.093      1301.8467    
     65200   298.80246     -15858.151      1954.5606    
     65300   311.91236     -15839.66       1646.9649    
     65400   303.83604     -15837.192      1188.7647    
     65500   286.27087     -15874.066      1745.2366    
     65600   299.3836      -15923.667      906.73902    
     65700   297.58698     -15917.884      505.34984    
     65800   297.71832     -15838.351      1820.2137    
     65900   297.20373     -15819.469      1957.2903    
     66000   312.05303     -15831.188      1744.8042    
     66100   294.92476     -15878.752      1574.1562    
     66200   290.53414     -15909.576      818.67315    
     66300   286.35724     -15898.869      1275.3696    
     66400   294.35211     -15868.808      1340.9139    
     66500   298.12612     -15837.901      1589.6095    
     66600   306.94314     -15834.164      1641.3772    
     66700   285.40717     -15837.461      1814.7798    
     66800   305.29439     -15834.812      1288.0981    
     66900   306.85721     -15832.775      1212.6934    
     67000   299.35985     -15851.19       1428.6208    
     67100   290.99922     -15873.263      1301.8883    
     67200   301.12071     -15871.151      1320.4565    
     67300   299.47508     -15823.967      1657.3763    
     67400   308.46245     -15813.962      1528.509     
     67500   298.56322     -15832.457      1520.6163    
     67600   299.36955     -15843.202      1612.3568    
     67700   313.31278     -15854.659      1508.5054    
     67800   302.52051     -15905.696      1161.2423    
     67900   281.49385     -15906.697      1756.5936    
     68000   304.08178     -15858.225      1615.321     
     68100   301.93992     -15832.103      1644.2316    
     68200   314.96389     -15817.467      1560.4322    
     68300   307.73786     -15813.625      1701.9153    
     68400   323.36125     -15797.42       1497.0641    
     68500   304.1169      -15806.878      1839.6263    
     68600   301.91009     -15857.971      1208.7193    
     68700   298.20033     -15881.135      1390.9516    
     68800   301.67853     -15867.399      1741.2527    
     68900   297.23869     -15815.808      1616.1046    
     69000   315.32504     -15786.285      1185.3435    
     69100   304.953       -15807.802      1234.8919    
     69200   289.16224     -15840.649      1803.2252    
     69300   281.28863     -15865.821      1618.7084    
     69400   292.15662     -15858.673      1409.5199    
     69500   302.44238     -15792.094      1728.9861    
     69600   317.47773     -15754.503      1731.6163    
     69700   306.59547     -15786.524      1286.8573    
     69800   315.93246     -15821.502      1633.5548    
     69900   298.31843     -15839.879      1713.658     
     70000   302.97434     -15837.246      1485.6263    
     70100   321.76047     -15810.018      1457.34      
     70200   309.29914     -15766.744      1936.7005    
     70300   317.57938     -15745.878      1644.3524    
     70400   304.52798     -15818.543      1743.6195    
     70500   298.32255     -15832.78       2079.7468    
     70600   304.52817     -15847.642      1670.9721    
     70700   293.50422     -15860.963      1445.8744    
     70800   306.18261     -15843.359      1197.5946    
     70900   308.21381     -15815.507      1598.5719    
     71000   294.27987     -15801.18       1775.125     
     71100   282.80377     -15857.186      1862.8875    
     71200   293.93025     -15868.913      1436.7776    
     71300   299.50578     -15860.771      1327.988     
     71400   301.34614     -15829.808      1635.9026    
     71500   308.49756     -15794.852      1448.8778    
     71600   306.11827     -15721.347      2235.022     
     71700   318.50924     -15724.068      1681.7196    
     71800   308.9843      -15760.892      1726.5316    
     71900   300.11642     -15803.205      1627.3798    
     72000   303.59888     -15850.287      1492.1563    
     72100   293.326       -15880.456      1073.811     
     72200   300.85851     -15858.089      1838.9679    
     72300   312.33909     -15808.335      1270.5494    
     72400   312.43068     -15792.219      1595.6072    
     72500   312.70929     -15793.939      1643.5058    
     72600   309.43808     -15806.903      1866.4544    
     72700   298.09267     -15827.786      1576.8118    
     72800   293.41058     -15852.577      1636.5804    
     72900   304.32118     -15842.587      1336.6301    
     73000   321.55689     -15777.415      1410.2015    
     73100   307.07541     -15777.058      1923.6114    
     73200   308.34209     -15818.802      1162.9654    
     73300   289.81664     -15838.35       1758.5079    
     73400   300.40316     -15844.135      1244.9611    
     73500   291.96094     -15854.016      1357.7036    
     73600   286.79578     -15869.01       1447.0031    
     73700   306.19558     -15876.059      883.80754    
     73800   288.60867     -15845.79       1619.7185    
     73900   303.58926     -15805.404      1032.7933    
     74000   306.56367     -15783.42       1181.3048    
     74100   294.63693     -15787.054      2026.107     
     74200   290.84094     -15851.9        1331.3987    
     74300   290.26406     -15870.285      1493.9894    
     74400   299.88905     -15849.279      1323.1574    
     74500   293.33569     -15819.005      1429.7675    
     74600   312.0485      -15810.389      1386.4099    
     74700   303.02843     -15821.996      1550.1328    
     74800   319.57116     -15825.204      1060.0877    
     74900   294.35895     -15825.108      1376.6107    
     75000   301.44174     -15781.91       1973.9315    
     75100   329.58516     -15724.872      1739.7751    
     75200   304.12604     -15778.15       1920.5375    
     75300   297.86537     -15813.214      1769.9787    
     75400   291.00214     -15835.876      1721.2213    
     75500   308.28774     -15846.625      824.70537    
     75600   293.2394      -15827.057      1805.7199    
     75700   298.66911     -15785.548      1997.1059    
     75800   303.54764     -15800.079      1339.7486    
     75900   294.28696     -15850.885      986.69668    
     76000   296.46645     -15845.817      1263.1892    
     76100   301.86593     -15844.896      1647.748     
     76200   303.70136     -15812.368      1021.8495    
     76300   327.68542     -15781.001      1097.4907    
     76400   298.40197     -15818.168      1580.7122    
     76500   304.03745     -15870.898      1071.3362    
     76600   293.02712     -15872.95       947.8483     
     76700   314.62311     -15848.668      1363.3772    
     76800   306.84252     -15807.832      1611.9387    
     76900   315.81184     -15782.251      1537.4217    
     77000   304.51862     -15817.426      990.33715    
     77100   289.23811     -15874.157      944.22825    
     77200   279.23348     -15847.79       1251.1386    
     77300   304.04794     -15805.087      1322.2085    
     77400   304.6132      -15805.628      1148.808     
     77500   303.15588     -15844.874      1110.0133    
     77600   292.01767     -15884.167      969.45175    
     77700   293.20474     -15869.684      1291.534     
     77800   309.72697     -15840.927      660.27548    
     77900   286.81169     -15834.936      1486.2706    
     78000   314.21239     -15821.613      1477.7628    
     78100   295.08799     -15819.346      1547.8633    
     78200   303.97223     -15834.552      992.89286    
     78300   299.08527     -15868.152      719.14686    
     78400   298.9554      -15884.67       1031.8096    
     78500   302.67986     -15839.498      1080.6534    
     78600   306.23393     -15781.666      1494.8482    
     78700   321.28622     -15779.942      1623.2201    
     78800   308.66878     -15810.425      1401.2613    
     78900   289.58697     -15828.05       1567.6613    
     79000   294.26541     -15831.179      1335.0189    
     79100   309.64295     -15820.423      1506.9319    
     79200   318.05245     -15799.048      1011.2782    
     79300   309.54184     -15796.369      1178.7515    
     79400   301.24912     -15797.694      1703.7676    
     79500   296.84133     -15813.661      1628.9705    
     79600   289.28252     -15839.46       1694.4728    
     79700   290.5816      -15866.356      1399.6486    
     79800   304.27081     -15855.566      1307.627     
     79900   294.07668     -15805.125      1923.7299    
     80000   302.24758     -15793.152      1642.8865    
     80100   290.84083     -15818.118      1786.5271    
     80200   297.21896     -15881.469      1299.0612    
     80300   291.8604      -15887.568      1250.329     
     80400   293.28476     -15862.286      1701.8936    
     80500   291.91511     -15824.847      1773.8927    
     80600   297.44503     -15796.051      1684.0753    
     80700   307.23612     -15782.763      2314.5274    
     80800   300.38347     -15808.988      1906.5111    
     80900   279.65861     -15847.521      1576.3123    
     81000   296.02928     -15863.597      1644.9184    
     81100   290.51747     -15861.386      1179.3062    
     81200   313.19359     -15814.371      1572.3033    
     81300   305.16102     -15783.032      2202.9526    
     81400   310.449       -15787.615      1599.3622    
     81500   312.61953     -15827.359      1233.6434    
     81600   291.66972     -15860.594      2013.2978    
     81700   291.09428     -15854.999      2093.9756    
     81800   310.01508     -15835.757      1422.0476    
     81900   300.50511     -15835.618      1773.5921    
     82000   298.26128     -15852.42       1368.2286    
     82100   286.79073     -15889.367      1549.5038    
     82200   301.7633      -15856.527      1128.0885    
     82300   291.22281     -15813.792      1861.0687    
     82400   303.60155     -15808.837      1568.6937    
     82500   270.03019     -15825.428      2027.2187    
     82600   306.52863     -15846.928      1167.8969    
     82700   286.44914     -15899.844      1473.845     
     82800   286.09725     -15884.697      1690.7804    
     82900   287.1917      -15845.93       1776.8821    
     83000   299.28129     -15819.846      1645.4445    
     83100   280.59961     -15811.025      2146.5087    
     83200   289.64568     -15821.061      2104.6133    
     83300   301.05372     -15860.412      1892.605     
     83400   281.46226     -15927.054      1093.1875    
     83500   301.47832     -15902.015      1246.2426    
     83600   296.64144     -15849.164      1824.9773    
     83700   307.59357     -15827.936      2112.3971    
     83800   295.84732     -15829.917      1938.8686    
     83900   305.76812     -15856.183      1545.3718    
     84000   292.69191     -15914.136      1416.0329    
     84100   293.82453     -15898.981      1482.0985    
     84200   303.67308     -15858.164      1575.2932    
     84300   309.13751     -15826.407      1144.4827    
     84400   301.1667      -15801.883      1799.7465    
     84500   295.09482     -15788.639      2184.418     
     84600   285.06295     -15828.726      2001.4866    
     84700   302.12444     -15874.747      1752.9079    
     84800   297.33193     -15866.262      1283.2514    
     84900   310.66871     -15832.347      1591.9109    
     85000   296.92923     -15810.977      1895.8903    
     85100   317.99688     -15800.121      1449.3576    
     85200   299.99957     -15816.633      2077.4264    
     85300   293.2614      -15879.174      1873.377     
     85400   297.76047     -15883.855      1469.3506    
     85500   304.35187     -15864.606      1452.7567    
     85600   302.99396     -15830.91       1763.1357    
     85700   308.19477     -15806.61       1704.0822    
     85800   309.78193     -15820.061      1913.5929    
     85900   296.87291     -15838.86       1895.4874    
     86000   296.31008     -15858.683      1565.7163    
     86100   297.68533     -15865.015      1484.4339    
     86200   288.74406     -15862.915      1984.126     
     86300   309.0162      -15863.663      1494.1879    
     86400   294.39329     -15842.715      1870.8235    
     86500   304.4349      -15803.011      1987.9639    
     86600   296.82189     -15796.088      1935.4929    
     86700   302.56932     -15843.47       1724.2874    
     86800   273.97227     -15864.243      1993.3933    
     86900   300.19043     -15837.295      1904.0463    
     87000   290.4102      -15816.314      2238.0683    
     87100   295.83112     -15798.291      2034.6447    
     87200   306.15608     -15806.889      1761.0364    
     87300   288.55961     -15837.677      1746.9638    
     87400   292.40585     -15878.39       1694.7371    
     87500   293.97485     -15873.675      1523.4471    
     87600   297.31865     -15824.607      1589.7146    
     87700   305.238       -15793.673      1675.2805    
     87800   295.06573     -15798.539      1884.7696    
     87900   295.16994     -15830.677      1517.2851    
     88000   291.69942     -15861.48       1080.4065    
     88100   286.23609     -15897.314      1557.7816    
     88200   294.79434     -15901.979      1503.4087    
     88300   292.21848     -15850.471      1943.3936    
     88400   296.20794     -15815.318      1560.5706    
     88500   284.43127     -15812.514      2283.0927    
     88600   294.34943     -15836.681      1892.2369    
     88700   307.59005     -15902.668      1202.9168    
     88800   294.90749     -15916.368      1386.5719    
     88900   294.11063     -15882.963      1607.9801    
     89000   301.19723     -15847.265      1667.4419    
     89100   306.15069     -15829.001      1593.9163    
     89200   303.77154     -15811.694      1889.4268    
     89300   314.71995     -15798.076      2014.0485    
     89400   306.3676      -15812.175      1960.6839    
     89500   290.74038     -15858.69       1959.6752    
     89600   311.73635     -15881.397      1412.8602    
     89700   289.46869     -15853.433      1630.2777    
     89800   309.98125     -15796.057      1736.6408    
     89900   304.86533     -15788.728      1806.2383    
     90000   308.78545     -15814.132      1866.2542    
     90100   297.68267     -15861.494      1517.9353    
     90200   291.12933     -15872.525      1406.8765    
     90300   293.8979      -15853.833      1644.7999    
     90400   294.29301     -15834.243      2111.4633    
     90500   311.55853     -15816.157      1803.7146    
     90600   309.53126     -15825.117      1680.787     
     90700   273.779       -15892.938      1505.9526    
     90800   293.12976     -15888.67       1090.8659    
     90900   299.57817     -15852.135      1963.7237    
     91000   314.8735      -15820.371      1567.7032    
     91100   290.25483     -15818.218      1830.6199    
     91200   301.14356     -15821.256      1507.3938    
     91300   298.83122     -15811.897      1734.2393    
     91400   294.39153     -15811.016      1914.7639    
     91500   297.29394     -15821.623      1983.5765    
     91600   283.52737     -15851.617      1462.5942    
     91700   294.69666     -15862.35       1468.3428    
     91800   311.37876     -15840.203      1379.8621    
     91900   308.65967     -15785.404      1931.2       
     92000   304.83711     -15779.687      2394.7464    
     92100   276.99484     -15838.463      2433.9426    
     92200   302.47552     -15856.705      1894.071     
     92300   295.68474     -15861.344      1118.1336    
     92400   288.36753     -15842.304      1834.3278    
     92500   302.95685     -15788.326      1606.6537    
     92600   315.45753     -15784.208      1372.5923    
     92700   317.44243     -15813.115      1372.9178    
     92800   303.16778     -15841.297      1902.5512    
     92900   292.68222     -15839.927      1409.9985    
     93000   303.49893     -15818.431      1476.4801    
     93100   306.39671     -15782.077      1737.5347    
     93200   316.40496     -15762.094      2087.6016    
     93300   306.10187     -15815.798      1556.058     
     93400   297.48964     -15833.428      1611.6677    
     93500   305.68475     -15827.835      1502.3912    
     93600   290.51544     -15787.684      1845.1749    
     93700   324.51044     -15746.258      1601.4616    
     93800   318.83447     -15749.398      1532.9374    
     93900   295.33029     -15819.552      1277.4146    
     94000   302.33271     -15824.358      1641.345     
     94100   297.13097     -15827.419      1360.7307    
     94200   300.75836     -15809.809      1768.1684    
     94300   308.91122     -15786.2        1382.2907    
     94400   299.24891     -15788.378      2036.2195    
     94500   297.66692     -15833.41       1729.2145    
     94600   291.51824     -15867.604      1602.0539    
     94700   297.75737     -15854.849      1744.9045    
     94800   295.66953     -15822.026      1576.4754    
     94900   314.92166     -15789.283      1683.4694    
     95000   301.08674     -15788.792      2003.4351    
     95100   282.80437     -15801.953      2334.5844    
     95200   290.0367      -15817.114      1594.9514    
     95300   303.22963     -15834.757      1948.5144    
     95400   290.254       -15869.712      1334.2242    
     95500   292.43667     -15859.11       2170.1106    
     95600   312.98941     -15806.199      1325.5342    
     95700   307.42504     -15797.477      1199.7564    
     95800   298.84333     -15826.135      1541.6876    
     95900   296.80731     -15853.234      1690.4195    
     96000   295.92458     -15867.004      1941.5998    
     96100   307.20201     -15859.588      1384.3543    
     96200   304.83994     -15816.791      1362.196     
     96300   305.2985      -15795.135      1883.328     
     96400   309.08948     -15820.012      1842.3649    
     96500   283.61548     -15869.049      1494.9593    
     96600   291.04617     -15862.657      1442.5721    
     96700   297.47944     -15828.514      1519.7374    
     96800   310.03062     -15808.042      1697.1388    
     96900   301.85122     -15815.658      2038.6894    
     97000   297.24362     -15810.476      1991.8777    
     97100   298.25893     -15811.219      1802.8719    
     97200   298.63883     -15819.316      1689.9917    
     97300   291.29403     -15869.126      1250.8951    
     97400   294.97991     -15873.463      1743.7069    
     97500   293.26601     -15831.92       1661.4526    
     97600   307.94688     -15803.659      1453.0183    
     97700   308.78149     -15798.909      1336.0768    
     97800   298.92924     -15814.83       1412.2238    
     97900   286.86258     -15843.329      1911.1671    
     98000   280.12952     -15911.777      1928.3941    
     98100   289.9629      -15904.229      1334.1339    
     98200   295.73671     -15870.331      1402.585     
     98300   322.62496     -15837.183      1145.8753    
     98400   296.26594     -15833.217      1655.6311    
     98500   294.38652     -15832.664      1869.5238    
     98600   295.19122     -15854.375      1650.4021    
     98700   286.93485     -15897.407      1556.7668    
     98800   277.58251     -15888.194      1977.5094    
     98900   299.9882      -15830.485      1866.4667    
     99000   299.93448     -15810.52       1780.4265    
     99100   289.50531     -15824.533      1692.0673    
     99200   282.9583      -15832.583      1995.3575    
     99300   320.58856     -15853.013      1473.0698    
     99400   289.434       -15895.153      1272.8601    
     99500   301.31728     -15885.444      1693.5883    
     99600   302.14286     -15833.33       1595.8836    
     99700   302.278       -15795.761      1647.8946    
     99800   312.00039     -15802.255      1815.6908    
     99900   301.59752     -15838.297      1708.9675    
    100000   290.89683     -15869.344      1586.0371    
    100100   311.05845     -15872.257      1080.4156    
    100200   295.9267      -15861.331      1407.1918    
    100300   300.01109     -15854.782      1186.0817    
    100400   301.25064     -15858.668      1233.8524    
    100500   288.25358     -15869.659      1754.0941    
    100600   294.96869     -15895.86       1482.6075    
    100700   297.25374     -15886.86       1494.0044    
    100800   303.90585     -15832.085      1555.4916    
    100900   303.32701     -15805.829      1354.761     
    101000   302.569       -15812.162      1834.9388    
    101100   315.32947     -15848.163      1252.324     
    101200   282.25717     -15892.442      1700.1207    
    101300   287.65962     -15870.759      1004.3645    
    101400   297.18391     -15835.859      1818.4494    
    101500   300.65593     -15812.432      1837.5389    
    101600   307.74673     -15795.984      1732.6858    
    101700   301.16629     -15824.113      1731.2667    
    101800   286.59628     -15882.921      1633.7035    
    101900   302.85301     -15867.278      1316.1018    
    102000   296.54367     -15842.747      1700.0132    
    102100   287.55615     -15810.965      1482.5739    
    102200   297.69855     -15803.377      1977.8939    
    102300   293.83314     -15873.177      1841.3118    
    102400   289.59316     -15904.571      1642.7053    
    102500   289.45333     -15888.812      1381.3947    
    102600   302.02818     -15853.408      1163.1196    
    102700   300.15803     -15824.849      1810.1571    
    102800   306.70121     -15816.87       1424.7089    
    102900   299.74243     -15823.601      1572.4149    
    103000   302.25185     -15835.904      1315.4033    
    103100   288.02202     -15867.872      1481.6897    
    103200   293.69354     -15858.606      1118.1833    
    103300   313.76711     -15801.401      1704.025     
    103400   281.9507      -15776.319      1687.8174    
    103500   305.04371     -15776.643      1892.5445    
    103600   298.21054     -15806.651      1921.6918    
    103700   280.41647     -15865.144      1573.5485    
    103800   302.60723     -15869.531      1746.1285    
    103900   303.9451      -15836.987      1187.4766    
    104000   310.49537     -15803.117      1898.8116    
    104100   307.83717     -15803.984      1625.3099    
    104200   306.39866     -15825.276      1512.4897    
    104300   287.25192     -15857.305      1524.0576    
    104400   307.92975     -15856.967      1499.4877    
    104500   304.20347     -15793.654      1936.0332    
    104600   321.57328     -15762.419      1846.9314    
    104700   306.89433     -15796.819      1716.2314    
    104800   294.6027      -15819.784      1562.01      
    104900   292.99846     -15825.798      1878.3648    
    105000   305.28144     -15811.152      1182.536     
    105100   312.58173     -15790.046      1567.1871    
    105200   292.01097     -15794.374      2179.5816    
    105300   309.71736     -15815.624      1528.22      
    105400   288.41698     -15854.809      1193.1091    
    105500   289.58595     -15858.603      1433.644     
    105600   315.12907     -15797.839      1831.9002    
    105700   296.17771     -15779.949      1881.4846    
    105800   294.28427     -15791.989      1941.2273    
    105900   300.02164     -15816.606      1822.3381    
    106000   311.70895     -15849.59       1242.2361    
    106100   301.07133     -15850.665      1232.2038    
    106200   295.40871     -15833.816      1280.2191    
    106300   310.25331     -15818.445      1447.9234    
    106400   307.64568     -15835.04       1696.2675    
    106500   302.001       -15892.247      1001.6572    
    106600   276.14026     -15918.108      1619.5161    
    106700   288.93619     -15894.84       1421.493     
    106800   292.75002     -15863.176      1740.8766    
    106900   294.73182     -15837.686      1662.0762    
    107000   307.63536     -15827.517      1294.501     
    107100   305.03498     -15833.894      1553.0308    
    107200   288.46593     -15880.639      1439.4499    
    107300   281.41094     -15886.904      1925.9318    
    107400   294.43162     -15845.488      1805.4555    
    107500   303.19681     -15829.659      1541.8051    
    107600   308.80964     -15843.439      1234.2132    
    107700   311.5775      -15843.7        1488.3305    
    107800   299.55671     -15854.136      1935.3893    
    107900   293.53465     -15865.63       1666.9238    
    108000   297.32563     -15843.13       1554.2245    
    108100   313.38624     -15815.726      1350.4768    
    108200   298.80841     -15829.149      1330.7689    
    108300   299.44532     -15862.689      1274.1813    
    108400   289.85295     -15912.539      1051.9379    
    108500   287.36183     -15895.632      1157.0645    
    108600   265.99165     -15856.663      1825.3298    
    108700   293.88165     -15825.323      1573.1704    
    108800   301.33397     -15805.094      1909.9743    
    108900   311.26393     -15803.002      1667.1157    
    109000   294.36343     -15839.771      1326.5894    
    109100   291.20942     -15888.891      1373.2746    
    109200   295.94859     -15886.322      1093.3141    
    109300   313.41451     -15845.998      1025.4287    
    109400   309.15628     -15788.018      1480.9737    
    109500   295.41705     -15780.91       1792.1235    
    109600   310.74528     -15808.11       1703.6976    
    109700   299.5595      -15833.391      1839.1921    
    109800   298.65095     -15847.444      1252.532     
    109900   308.15492     -15829.605      1591.0272    
    110000   303.95766     -15804.098      2195.7542    
    110100   303.46364     -15784.078      1702.4672    
    110200   318.69664     -15703.22       1976.9055    
    110300   301.97455     -15706.234      1985.4267    
    110400   301.44938     -15772.591      1589.5908    
    110500   295.03663     -15817.655      1832.2729    
    110600   289.4207      -15841.398      1507.1428    
    110700   308.00116     -15858.889      1290.8396    
    110800   294.61808     -15846.794      1295.9086    
    110900   296.87233     -15791.656      1918.2135    
    111000   313.56411     -15788.278      1566.185     
    111100   308.59671     -15825.373      1633.019     
    111200   307.54555     -15835.976      1868.1019    
    111300   301.25402     -15846.686      1569.6696    
    111400   304.3594      -15858.98       1431.3423    
    111500   302.44751     -15834.613      1329.0221    
    111600   306.14035     -15779.386      1539.0586    
    111700   299.19619     -15770.662      2030.5185    
    111800   309.12455     -15818.323      1937.9706    
    111900   296.32794     -15847.746      1319.8915    
    112000   288.81372     -15837.06       1408.3813    
    112100   310.98078     -15810.761      1645.7529    
    112200   315.58689     -15778.362      1701.4301    
    112300   312.14171     -15786.544      1627.8445    
    112400   297.22118     -15849.348      1775.8648    
    112500   292.01584     -15859.522      1781.3217    
    112600   275.82711     -15828.079      1876.5041    
    112700   301.61397     -15765.682      2238.2359    
    112800   299.66605     -15772.411      2409.3371    
    112900   306.88454     -15793.592      1985.5237    
    113000   302.08923     -15812.2        1971.4561    
    113100   304.92875     -15810.936      1723.7785    
    113200   294.32071     -15815.945      2140.856     
    113300   296.74926     -15815.011      1759.0496    
    113400   303.75025     -15816.532      2031.3       
    113500   294.78813     -15848.354      1569.4287    
    113600   292.34476     -15886.055      1620.3651    
    113700   281.06698     -15888.729      1485.8602    
    113800   305.4808      -15817.59       1991.3323    
    113900   297.62127     -15795.448      1717.644     
    114000   297.22764     -15807.709      2160.2185    
    114100   312.73198     -15858.764      1415.7153    
    114200   293.12537     -15891.215      1758.0515    
    114300   291.84238     -15869.18       1979.2453    
    114400   310.22934     -15854.798      1772.6423    
    114500   296.0231      -15843.234      1736.5699    
    114600   293.98969     -15827.215      2168.6515    
    114700   297.24026     -15826.136      2340.8989    
    114800   303.14506     -15841.412      1552.6138    
    114900   301.23734     -15863.285      1547.9705    
    115000   293.98262     -15879.133      1864.7712    
    115100   294.36368     -15868.753      1834.4294    
    115200   300.89472     -15810.747      1870.0563    
    115300   308.68106     -15786.781      1812.9472    
    115400   311.29022     -15799.72       2293.5613    
    115500   313.56707     -15831.771      1924.9423    
    115600   292.59656     -15866.041      2062.2012    
    115700   281.71        -15933.53       1775.7253    
    115800   280.42709     -15932.936      1532.6909    
    115900   301.88413     -15885.19       1331.641     
    116000   292.1206      -15841.304      1798.9769    
    116100   297.74931     -15814.02       1799.4035    
    116200   305.84211     -15805.323      1840.9184    
    116300   290.60401     -15815.865      2171.1283    
    116400   296.7021      -15854.515      2009.4035    
    116500   292.72302     -15877.162      1603.3147    
    116600   283.75502     -15854.552      1913.5007    
    116700   321.58828     -15795.301      1575.425     
    116800   311.50261     -15797.881      1565.5973    
    116900   299.22587     -15821.019      1612.9427    
    117000   297.69656     -15846.169      1773.7559    
    117100   303.90372     -15863.888      1759.8581    
    117200   303.07615     -15882.157      1923.2254    
    117300   282.29664     -15898.989      1695.5114    
    117400   290.60833     -15855.516      1521.1734    
    117500   302.45084     -15818.971      1535.9831    
    117600   298.92577     -15801.168      1816.2371    
    117700   302.57982     -15806.504      1709.6086    
    117800   285.47103     -15848.331      2085.107     
    117900   286.64044     -15844.982      2068.2558    
    118000   314.01981     -15783.837      2235.6766    
    118100   297.07596     -15773.64       2305.9684    
    118200   291.72186     -15798.632      2174.1574    
    118300   295.97738     -15825.268      1869.2301    
    118400   296.27383     -15801.444      1967.5263    
    118500   309.55272     -15737.155      2363.5245    
    118600   292.92447     -15731.963      2324.5279    
    118700   295.32633     -15747.773      2598.4865    
    118800   294.70835     -15759.458      2440.054     
    118900   297.67981     -15779.93       2740.9135    
    119000   288.03951     -15807.424      2273.1355    
    119100   290.73932     -15812.939      2178.8256    
    119200   297.19075     -15800.42       1878.4367    
    119300   310.64006     -15736.613      2379.8157    
    119400   293.83541     -15744.09       2546.6258    
    119500   307.17306     -15785.475      1958.3787    
    119600   308.22249     -15800.62       2182.964     
    119700   289.83756     -15819.976      2414.926     
    119800   291.4854      -15784.737      2312.2838    
    119900   311.47884     -15728.295      2807.2777    
    120000   299.20049     -15733.381      2783.3093    
    120100   299.45007     -15776.754      2466.9029    
    120200   307.85083     -15799.492      2067.002     
    120300   303.39904     -15792.041      2067.6954    
    120400   293.88423     -15774.236      2566.7751    
    120500   293.14288     -15750.991      2498.1057    
    120600   299.64226     -15740.243      2404.3246    
    120700   298.2565      -15800.979      2386.2307    
    120800   285.15296     -15814.652      2418.1865    
    120900   289.17557     -15785.158      2553.6645    
    121000   305.52058     -15740.162      2581.3757    
    121100   310.96686     -15730.884      2609.4142    
    121200   300.01001     -15740.201      2577.6943    
    121300   312.17437     -15758.464      2272.9342    
    121400   275.89958     -15821.785      2415.4987    
    121500   290.95287     -15847.753      2118.4797    
    121600   293.87972     -15805.619      2070.2386    
    121700   291.0977      -15778.752      2242.8834    
    121800   304.2115      -15760.895      2294.0891    
    121900   303.53958     -15778.224      2053.1631    
    122000   293.25005     -15807.821      2374.1165    
    122100   303.86382     -15801.178      2187.354     
    122200   291.12345     -15774.201      2417.0507    
    122300   309.78347     -15697.639      2831.9933    
    122400   301.64283     -15698.438      3364.053     
    122500   293.30802     -15742.711      3175.7461    
    122600   303.17532     -15762.809      2149.0049    
    122700   301.46079     -15768.419      2653.5674    
    122800   297.72448     -15766.342      2900.7084    
    122900   302.65244     -15737.432      2748.105     
    123000   308.06071     -15684.644      2970.0998    
    123100   300.45927     -15667.127      3347.3232    
    123200   316.55467     -15708.247      2232.5646    
    123300   292.06017     -15741.411      2472.08      
    123400   301.88195     -15757.409      2267.6421    
    123500   303.23371     -15784.58       2532.6148    
    123600   296.09293     -15809.263      2321.6038    
    123700   293.06157     -15803.006      2244.3357    
    123800   314.05289     -15748.338      2547.6466    
    123900   303.43022     -15721.472      2410.7778    
    124000   304.92044     -15746.168      2284.9013    
    124100   306.77261     -15795.192      2158.0794    
    124200   311.50691     -15796.269      2164.9599    
    124300   293.04509     -15794.804      2162.5513    
    124400   297.53728     -15773.188      2417.194     
    124500   308.08361     -15707.993      2588.1235    
    124600   307.49495     -15716.94       2852.8974    
    124700   299.279       -15760.192      2655.0367    
    124800   287.88549     -15776.297      2340.5963    
    124900   287.90604     -15777.84       2452.3814    
    125000   309.89953     -15751.595      1716.0733    
    125100   310.61591     -15706.509      2647.4348    
    125200   310.79841     -15710.208      2082.9217    
    125300   300.6851      -15757.446      1963.847     
    125400   300.16986     -15763.856      2481.8659    
    125500   289.77946     -15776.381      2683.6971    
    125600   289.57427     -15800.579      2473.7562    
    125700   299.21788     -15834.13       1904.6606    
    125800   298.20499     -15838.464      1967.1819    
    125900   306.55172     -15784.442      1857.9396    
    126000   293.53496     -15763.907      2097.1803    
    126100   301.66905     -15785.329      2431.6712    
[...]
   4967400   300.51213     -15766.712      2100.9793    
   4967500   315.48246     -15747.2        2320.2588    
   4967600   296.54706     -15763.387      2377.4979    
   4967700   300.83879     -15779.765      2248.0177    
   4967800   298.67        -15782.911      2075.6126    
   4967900   299.88778     -15792.17       1593.8967    
   4968000   289.02425     -15782.035      1833.8475    
   4968100   297.24922     -15737.912      2752.3743    
   4968200   306.53342     -15713.311      2527.2194    
   4968300   315.61285     -15737.416      1848.3118    
   4968400   310.93562     -15787.153      1615.8578    
   4968500   307.33233     -15788.277      1433.0305    
   4968600   288.57379     -15775.163      2068.7292    
   4968700   294.61528     -15732.886      1811.9617    
   4968800   311.30669     -15700.107      1998.9542    
   4968900   313.07714     -15710.707      2287.2148    
   4969000   306.89916     -15729.558      2134.6276    
   4969100   301.06785     -15766.623      2197.86      
   4969200   290.47965     -15786.799      1922.983     
   4969300   298.9997      -15777.732      2166.4783    
   4969400   300.38193     -15759.244      1946.7529    
   4969500   298.97338     -15680.076      2270.7275    
   4969600   312.8358      -15685.576      2659.9407    
   4969700   300.72301     -15738.453      2490.7442    
   4969800   296.76698     -15762.798      1748.2684    
   4969900   304.64239     -15766.313      1343.0695    
   4970000   302.21496     -15745.931      1788.231     
   4970100   313.4038      -15689.079      2466.8124    
   4970200   308.40967     -15687.919      2428.5293    
   4970300   297.88525     -15725.16       2833.8336    
   4970400   312.4205      -15744.4        2292.3768    
   4970500   295.91871     -15751.992      2217.9559    
   4970600   303.88221     -15754.84       2289.2273    
   4970700   278.54058     -15768.911      2608.8004    
   4970800   301.68216     -15774.47       2360.9556    
   4970900   298.99156     -15745.061      2616.4603    
   4971000   303.79951     -15707.596      2138.0194    
   4971100   296.77814     -15690.147      2987.127     
   4971200   314.94864     -15725.064      2337.0998    
   4971300   283.80087     -15777.109      2680.7775    
   4971400   290.07661     -15759.979      2747.6887    
   4971500   293.99243     -15720.004      2655.8312    
   4971600   305.9682      -15710.603      2221.0989    
   4971700   305.96625     -15744.166      2646.2351    
   4971800   301.62412     -15772.918      2252.3528    
   4971900   299.19991     -15775.912      2150.4934    
   4972000   299.64151     -15761.743      2554.0742    
   4972100   297.19026     -15745.358      2550.1158    
   4972200   308.74955     -15696.725      2663.4182    
   4972300   316.2261      -15667.817      2452.6782    
   4972400   309.61208     -15700.839      2505.934     
   4972500   303.86403     -15750.169      1886.4295    
   4972600   294.80984     -15742.046      2372.1147    
   4972700   306.9222      -15726.138      2735.6607    
   4972800   309.18877     -15727.122      2704.7714    
   4972900   284.45852     -15774.775      2303.3197    
   4973000   285.43866     -15786.676      2479.5737    
   4973100   313.18873     -15735.25       2347.0479    
   4973200   309.38433     -15699.063      2779.2019    
   4973300   301.27271     -15712.296      3014.8098    
   4973400   297.18732     -15743.259      2806.654     
   4973500   301.70925     -15767.109      2667.2737    
   4973600   292.89202     -15767.276      2717.9187    
   4973700   299.29864     -15711.436      2838.2685    
   4973800   306.58942     -15669.547      2995.3039    
   4973900   312.27339     -15657.697      3088.0219    
   4974000   300.04913     -15705.193      2488.9545    
   4974100   301.06608     -15736.352      2432.6781    
   4974200   296.13549     -15740.571      2858.1437    
   4974300   300.34575     -15717.021      3005.186     
   4974400   304.60605     -15698.571      2982.031     
   4974500   299.86259     -15694.137      3049.6732    
   4974600   303.78363     -15721.535      3206.993     
   4974700   299.17137     -15753.783      2704.498     
   4974800   286.95121     -15750.09       2674.7091    
   4974900   300.06554     -15697.107      2736.7701    
   4975000   304.13641     -15670.88       3074.0739    
   4975100   310.70471     -15688.141      3123.6516    
   4975200   308.23649     -15723.866      2431.9523    
   4975300   313.63951     -15737.104      2210.5709    
   4975400   297.78697     -15749.562      2671.7197    
   4975500   289.96318     -15753.373      2553.4207    
   4975600   298.48195     -15738.522      2908.9779    
   4975700   313.25006     -15710.246      2684.7332    
   4975800   304.76282     -15731.193      2685.6897    
   4975900   311.20025     -15784.208      2339.9287    
   4976000   290.23525     -15797.809      2202.7918    
   4976100   290.91735     -15788.107      2426.4813    
   4976200   306.00942     -15762.096      2428.5233    
   4976300   301.38479     -15723.843      2704.0958    
   4976400   292.88949     -15734.823      2682.7971    
   4976500   299.85478     -15775.035      2579.5948    
   4976600   308.11577     -15786.729      2037.1876    
   4976700   306.10258     -15773.567      2024.474     
   4976800   304.04149     -15724.749      2758.411     
   4976900   305.05012     -15733.405      2152.22      
   4977000   305.28656     -15778.899      2005.8732    
   4977100   291.58519     -15790.895      1992.5869    
   4977200   309.5962      -15784.965      2040.7927    
   4977300   305.54665     -15779.129      2144.4441    
   4977400   300.62687     -15787.03       1713.8853    
   4977500   290.05969     -15812.842      1997.9286    
   4977600   278.06307     -15812.964      1856.9644    
   4977700   296.32013     -15767.86       2173.314     
   4977800   297.93947     -15736.577      2346.7141    
   4977900   299.08433     -15736.285      1901.9766    
   4978000   302.99163     -15774.305      2469.8114    
   4978100   301.193       -15816.694      2023.0776    
   4978200   287.66438     -15812.436      2162.3161    
   4978300   295.51361     -15782.688      1876.326     
   4978400   303.20916     -15765.77       2158.5202    
   4978500   303.28568     -15775.257      2289.4262    
   4978600   294.27894     -15818.611      2420.4658    
   4978700   289.48335     -15836.123      2053.0114    
   4978800   296.39936     -15793.389      2344.9785    
   4978900   302.63587     -15764.758      2090.4443    
   4979000   301.92844     -15763.058      2455.8647    
   4979100   306.96705     -15764.635      1777.6973    
   4979200   288.5596      -15769.769      2370.0627    
   4979300   316.67003     -15728.994      1960.7121    
   4979400   328.3008      -15681.918      2023.8459    
   4979500   309.50957     -15725.432      1977.4587    
   4979600   298.25173     -15760.553      1826.1301    
   4979700   313.57195     -15760.951      2306.1196    
   4979800   301.86132     -15766.609      2117.2909    
   4979900   303.40404     -15797.388      1566.7557    
   4980000   292.47145     -15832.19       2056.2241    
   4980100   284.86151     -15813.326      2662.5721    
   4980200   306.94619     -15754.261      2139.0029    
   4980300   296.33744     -15753.537      2449.4568    
   4980400   294.38306     -15775.268      2290.5615    
   4980500   283.05304     -15806.215      2077.8263    
   4980600   296.28063     -15822.982      1537.461     
   4980700   288.12163     -15829.046      2125.8063    
   4980800   307.56694     -15784.487      2188.5083    
   4980900   297.07469     -15750.052      2197.9577    
   4981000   295.51261     -15763.549      1962.4381    
   4981100   289.72494     -15795.41       2405.95      
   4981200   284.73923     -15830.805      2284.635     
   4981300   276.05711     -15843.885      1944.1821    
   4981400   287.78599     -15783.688      2337.4009    
   4981500   305.24271     -15743.757      2158.9666    
   4981600   298.46401     -15746.604      2146.0432    
   4981700   280.81634     -15782.766      2375.7289    
   4981800   295.10016     -15817.556      2085.9801    
   4981900   311.82962     -15804.038      1868.4926    
   4982000   293.28814     -15732.931      2099.7691    
   4982100   295.59867     -15706.036      3137.9515    
   4982200   292.61907     -15729.725      2503.9631    
   4982300   284.13262     -15773.774      2662.4041    
   4982400   296.19005     -15789.494      2215.2304    
   4982500   293.19058     -15775.282      2521.5332    
   4982600   322.65841     -15704.834      2529.2278    
   4982700   311.73664     -15686.813      2142.2614    
   4982800   305.105       -15728.357      2485.6228    
   4982900   286.81495     -15763.082      2563.7168    
   4983000   281.70563     -15761.138      2466.0902    
   4983100   299.95955     -15746.855      2657.3964    
   4983200   295.11323     -15732.008      2169.6225    
   4983300   303.90874     -15737.817      2262.2383    
   4983400   299.2177      -15763.279      2125.805     
   4983500   292.25006     -15816.655      1917.6189    
   4983600   281.73662     -15808.993      1904.4228    
   4983700   295.51783     -15776.908      2162.4175    
   4983800   311.09586     -15755.389      1638.3104    
   4983900   295.65427     -15754.749      2490.3485    
   4984000   305.04982     -15717.533      2141.426     
   4984100   302.56859     -15688.333      2476.06      
   4984200   307.20329     -15735.784      1923.1355    
   4984300   306.38186     -15782.183      1643.6137    
   4984400   302.01519     -15799.501      1557.149     
   4984500   295.23391     -15814.17       1958.0699    
   4984600   301.07233     -15821.887      1748.0143    
   4984700   298.28072     -15775.108      1968.6402    
   4984800   319.85282     -15731.226      2120.7385    
   4984900   311.8089      -15735.91       1705.6401    
   4985000   299.10372     -15773.735      1975.3671    
   4985100   296.53667     -15819.563      2274.1937    
   4985200   287.85723     -15812.993      1871.5979    
   4985300   298.0635      -15786.98       1751.6614    
   4985400   296.12836     -15762.802      2044.1488    
   4985500   310.57673     -15738.533      2061.1832    
   4985600   291.56713     -15738.665      2574.6188    
   4985700   291.34579     -15798.66       1606.825     
   4985800   290.90069     -15812.089      2002.0181    
   4985900   291.87117     -15775.745      2773.4926    
   4986000   305.97527     -15746.03       2790.9558    
   4986100   297.49476     -15734.699      2456.5965    
   4986200   308.97926     -15746.727      2430.2563    
   4986300   303.87021     -15791.664      1981.8376    
   4986400   299.74944     -15825.722      1937.9238    
   4986500   287.44532     -15796.454      2160.7489    
   4986600   295.19465     -15745.597      2618.2583    
   4986700   301.04111     -15723.098      2459.8759    
   4986800   303.69324     -15758.16       1857.1175    
   4986900   291.18102     -15782.623      1677.4627    
   4987000   296.16        -15763.959      2083.3819    
   4987100   307.44833     -15752.779      2299.6608    
   4987200   297.77627     -15757.369      2364.6471    
   4987300   317.47734     -15733.366      1731.7035    
   4987400   313.45633     -15715.62       2220.6582    
   4987500   287.63348     -15748.705      2356.193     
   4987600   289.52335     -15773.537      2055.1625    
   4987700   298.39166     -15773.045      2138.9226    
   4987800   301.89137     -15773.888      2266.6578    
   4987900   299.8574      -15792.549      2123.9353    
   4988000   301.5154      -15830.961      1466.3113    
   4988100   283.03986     -15835.998      1501.6475    
   4988200   291.14056     -15794.228      1856.0347    
   4988300   310.79388     -15729.681      2686.1502    
   4988400   322.35665     -15704.871      2548.2309    
   4988500   306.42076     -15732.426      2519.5372    
   4988600   302.75393     -15762.763      2436.1481    
   4988700   296.64456     -15786.627      2483.1416    
   4988800   301.26946     -15823.588      1755.5284    
   4988900   303.19671     -15854.131      1736.8113    
   4989000   283.40429     -15883.919      1460.2912    
   4989100   286.93241     -15868.776      1667.218     
   4989200   300.6458      -15807.753      2382.4856    
   4989300   300.81365     -15775.512      2224.3006    
   4989400   299.78596     -15773.65       2777.6008    
   4989500   293.94213     -15790.511      2428.1362    
   4989600   287.17297     -15826.263      2244.9955    
   4989700   288.34622     -15817.581      2780.2502    
   4989800   301.56981     -15751.771      2886.6525    
   4989900   307.93412     -15746.74       2128.3054    
   4990000   308.00231     -15764.795      2591.7446    
   4990100   303.93411     -15797.66       2371.9152    
   4990200   306.78766     -15813.591      1793.9159    
   4990300   298.63312     -15777.498      2590.5737    
   4990400   311.19757     -15733.798      2592.8572    
   4990500   297.62739     -15776.181      2060.1765    
   4990600   289.67124     -15799.146      2032.3181    
   4990700   296.62692     -15813.57       1949.4328    
   4990800   306.13508     -15815.012      1915.3134    
   4990900   306.05854     -15810.387      2213.5012    
   4991000   292.9103      -15794.716      2406.4123    
   4991100   303.62353     -15752.338      2387.8322    
   4991200   308.99884     -15738.203      2258.8685    
   4991300   295.44465     -15776.952      2581.708     
   4991400   286.37506     -15791.129      2396.7998    
   4991500   301.41993     -15776.582      2138.1717    
   4991600   305.20678     -15743.626      2589.5604    
   4991700   318.82677     -15752.178      2307.1738    
   4991800   304.39478     -15824.722      1807.3178    
   4991900   285.82259     -15834.526      2169.6934    
   4992000   314.27511     -15804.367      1721.5261    
   4992100   301.03887     -15775.845      2260.5975    
   4992200   304.59101     -15770.601      2694.5557    
   4992300   294.81675     -15794.549      2186.5262    
   4992400   287.05787     -15847.434      2096.0479    
   4992500   296.34466     -15829.189      1950.9937    
   4992600   297.66257     -15800.752      2104.3587    
   4992700   306.06333     -15765.027      1794.5302    
   4992800   310.72823     -15749.889      1902.4989    
   4992900   306.45562     -15745.527      2052.7472    
   4993000   291.27211     -15765.189      2337.7217    
   4993100   300.10542     -15790.331      2023.0367    
   4993200   285.49176     -15773.437      2201.3629    
   4993300   299.75732     -15721.717      2997.6491    
   4993400   301.49085     -15710.373      2093.2642    
   4993500   308.21917     -15742.161      2573.1625    
   4993600   290.10424     -15793.369      2361.9423    
   4993700   299.92349     -15789.05       2272.3771    
   4993800   292.36907     -15769.157      2215.2176    
   4993900   312.06164     -15743.152      2285.4959    
   4994000   294.00389     -15753.134      2678.2058    
   4994100   302.1678      -15807.002      2569.0505    
   4994200   285.1121      -15825.318      2100.3571    
   4994300   281.35885     -15800.668      2613.0697    
   4994400   294.92994     -15777.176      2045.8373    
   4994500   300.17825     -15760.89       2213.7362    
   4994600   311.8917      -15765.046      2087.8837    
   4994700   287.85317     -15793.13       2439.3425    
   4994800   285.06108     -15837.701      2042.3828    
   4994900   301.91527     -15802.985      2092.3752    
   4995000   302.8782      -15739.604      2235.5703    
   4995100   310.36275     -15730          2308.6495    
   4995200   285.69738     -15743.422      2626.0696    
   4995300   299.76942     -15783.786      1841.4504    
   4995400   306.02187     -15803.03       1995.1374    
   4995500   294.14887     -15770.181      2534.4613    
   4995600   296.94634     -15714.809      2581.9129    
   4995700   293.26997     -15731.493      2958.9744    
   4995800   291.58813     -15753.304      2621.5005    
   4995900   288.70984     -15773.028      2141.5065    
   4996000   297.70137     -15766.31       2215.0951    
   4996100   308.4535      -15718.927      2694.1269    
   4996200   309.17421     -15671.949      2828.3905    
   4996300   312.80043     -15702.324      3005.1757    
   4996400   303.08651     -15746.91       2809.4569    
   4996500   294.97825     -15748.847      2862.0141    
   4996600   296.79135     -15741.988      2683.9795    
   4996700   307.41789     -15744.354      2753.3557    
   4996800   302.75208     -15786.778      2639.5674    
   4996900   289.6091      -15822.457      2104.9149    
   4997000   302.8904      -15801.694      1383.5424    
   4997100   300.06779     -15774.721      2024.604     
   4997200   295.9902      -15777.053      2607.3608    
   4997300   284.84235     -15811.872      2455.4351    
   4997400   294.23803     -15810.001      2143.0372    
   4997500   294.82658     -15771.073      2275.8649    
   4997600   297.73892     -15759.041      2114.4045    
   4997700   309.86671     -15767.311      2091.7648    
   4997800   292.36313     -15781.724      2316.822     
   4997900   290.19402     -15808.114      2544.8337    
   4998000   289.31795     -15868.878      1723.1775    
   4998100   300.77917     -15852.601      1544.4693    
   4998200   296.49931     -15816.013      2198.9322    
   4998300   304.99031     -15780.953      2183.4949    
   4998400   292.2444      -15768.239      2071.8862    
   4998500   296.51918     -15795.613      2009.5076    
   4998600   294.95218     -15841.712      1896.2978    
   4998700   289.38215     -15855.567      1849.4105    
   4998800   300.37341     -15831.772      1775.7884    
   4998900   299.18157     -15792.472      1930.4576    
   4999000   296.84999     -15756.944      2280.1048    
   4999100   303.48166     -15741.247      2441.5649    
   4999200   292.1758      -15778.219      2303.094     
   4999300   295.36359     -15825.676      1621.8776    
   4999400   291.94702     -15815.577      2071.8257    
   4999500   296.69194     -15793.688      2135.1114    
   4999600   310.69816     -15776.293      2072.2673    
   4999700   305.63469     -15758.325      2279.8283    
   4999800   296.01733     -15755.381      2321.8842    
   4999900   301.27599     -15758.214      2431.7959    
   5000000   293.9935      -15800.837      2092.0362    
Loop time of 33760.8 on 32 procs for 5000000 steps with 1168 atoms

Performance: 12.796 ns/day, 1.876 hours/ns, 148.101 timesteps/s, 172.981 katom-step/s
99.7% CPU use with 32 MPI tasks x 1 OpenMP threads

MPI task timing breakdown:
Section |  min time  |  avg time  |  max time  |%varavg| %total
---------------------------------------------------------------
Pair    | 1.2095     | 983.18     | 4351.5     |4719.3 |  2.91
Bond    | 0.82034    | 15.135     | 39.558     | 349.0 |  0.04
Kspace  | 10908      | 16279      | 27822      |4552.5 | 48.22
Neigh   | 368.64     | 372.09     | 375.91     |  10.9 |  1.10
Comm    | 1380.8     | 10496      | 18236      |6982.1 | 31.09
Output  | 41.093     | 152.96     | 182.81     | 433.2 |  0.45
Modify  | 1028.1     | 5347.1     | 18153      |9903.7 | 15.84
Other   |            | 115.3      |            |       |  0.34

Nlocal:           36.5 ave         125 max           0 min
Histogram: 17 7 0 0 0 0 0 0 0 8
Nghost:        1583.44 ave        1727 max        1411 min
Histogram: 8 0 0 0 0 11 5 0 0 8
Neighs:        12181.3 ave       61294 max           0 min
Histogram: 24 0 0 0 2 1 1 2 0 2

Total # of neighbors = 389803
Ave neighs/atom = 333.73545
Ave special neighs/atom = 10.847603
Neighbor list builds = 277319
Dangerous builds = 0
Total wall time: 9:22:44
