 vasp.6.3.2 27Jun22 (build Aug 24 2022 16:22:54) complex                         
 executed on             LinuxGNU date 2024.03.07  13:53:03
 running on   32 total cores
 distrk:  each k-point on   32 cores,    1 groups
 distr:  one band on NCORE=   1 cores,   32 groups


--------------------------------------------------------------------------------------------------------


 INCAR:
   ALGO = Fast
   EDIFF = 0.0024000000000000002
   ENCUT = 520
   START = 0
   IBRION = -1
   ISIF = 3
   ISMEAR = 0
   ISPIN = 2
   LASPH = True
   LCHARG = True
   LREAL = Auto
   LWAVE = False
   MAGMOM = 48*0.6
   NELM = 100
   NSW = 99
   PREC = Accurate
   SIGMA = 0.05

 POTCAR:    PAW_PBE Na_pv 19Sep2006               
 POTCAR:    PAW_PBE S 06Sep2000                   
 -----------------------------------------------------------------------------
|                                                                             |
|           W    W    AA    RRRRR   N    N  II  N    N   GGGG   !!!           |
|           W    W   A  A   R    R  NN   N  II  NN   N  G    G  !!!           |
|           W    W  A    A  R    R  N N  N  II  N N  N  G       !!!           |
|           W WW W  AAAAAA  RRRRR   N  N N  II  N  N N  G  GGG   !            |
|           WW  WW  A    A  R   R   N   NN  II  N   NN  G    G                |
|           W    W  A    A  R    R  N    N  II  N    N   GGGG   !!!           |
|                                                                             |
|     For optimal performance we recommend to set                             |
|       NCORE = 2 up to number-of-cores-per-socket                            |
|     NCORE specifies how many cores store one orbital (NPAR=cpu/NCORE).      |
|     This setting can greatly improve the performance of VASP for DFT.       |
|     The default, NCORE=1 might be grossly inefficient on modern             |
|     multi-core architectures or massively parallel machines. Do your        |
|     own testing! More info at https://www.vasp.at/wiki/index.php/NCORE      |
|     Unfortunately you need to use the default for GW and RPA                |
|     calculations (for HF NCORE is supported but not extensively tested      |
|     yet).                                                                   |
|                                                                             |
 -----------------------------------------------------------------------------

 POTCAR:    PAW_PBE Na_pv 19Sep2006               
   SHA256 =  6a2f546d9e11350984debacf3dc457d8cffc0868e817d445faca461816a32b94 Na_pv/POTCAR          
   COPYR  = (c) Copyright 19Sep2006 Georg Kresse                                                    
   COPYR  = This file is part of the software VASP. Any use, copying, and all other rights are regul
   COPYR  = If you do not have a valid VASP license, you may not use, copy or distribute this file. 
   VRHFIN =Na: p6s1                                                                                 
   LEXCH  = PE                                                                                      
   EATOM  =   766.0439 eV,   56.3026 Ry                                                             
                                                                                                    
   TITEL  = PAW_PBE Na_pv 19Sep2006                                                                 
   LULTRA =        F    use ultrasoft PP ?                                                          
   IUNSCR =        1    unscreen: 0-lin 1-nonlin 2-no                                               
   RPACOR =    1.800    partial core radius                                                         
   POMASS =   22.990; ZVAL   =    7.000    mass and valenz                                          
   RCORE  =    2.200    outmost cutoff radius                                                       
   RWIGS  =    2.200; RWIGS  =    1.164    wigner-seitz radius (au A)                               
   ENMAX  =  259.561; ENMIN  =  194.671 eV                                                          
   ICORE  =        2    local potential                                                             
   LCOR   =        T    correct aug charges                                                         
   LPAW   =        T    paw PP                                                                      
   EAUG   =  368.056                                                                                
   DEXC   =    0.000                                                                                
   RMAX   =    2.245    core radius for proj-oper                                                   
   RAUG   =    1.300    factor for augmentation sphere                                              
   RDEP   =    2.259    radius for radial grids                                                     
   RDEPT  =    1.738    core radius for aug-charge                                                  
                                                                                                    
   Atomic configuration                                                                             
    5 entries                                                                                       
     n  l   j            E        occ.                                                              
     1  0  0.50     -1033.6933   2.0000                                                             
     2  0  0.50       -56.7526   2.0000                                                             
     2  1  1.50       -28.6721   6.0000                                                             
     3  0  0.50        -2.7440   1.0000                                                             
     3  2  1.50        -1.3606   0.0000                                                             
   Description                                                                                      
     l       E           TYP  RCUT    TYP  RCUT                                                     
     1    -28.6720912     23  2.000                                                                 
     1      6.8029130     23  2.000                                                                 
     0     -2.7439560     23  2.200                                                                 
     0     34.0145650     23  2.200                                                                 
     2     -1.3605826     23  2.200                                                                 
  local pseudopotential read in
  partial core-charges read in
  partial kinetic energy density read in
  atomic valenz-charges read in
  non local Contribution for L=           1  read in
    real space projection operators read in
  non local Contribution for L=           1  read in
    real space projection operators read in
  non local Contribution for L=           0  read in
    real space projection operators read in
  non local Contribution for L=           0  read in
    real space projection operators read in
    PAW grid and wavefunctions read in

   number of l-projection  operators is LMAX  =           4
   number of lm-projection operators is LMMAX =           8

 POTCAR:    PAW_PBE S 06Sep2000                   
   SHA256 =  0fc7481fb0695f01bdc6462160264c5c84044ae9ec85a907d398b887a2bc3132 S/POTCAR              
   COPYR  = (c) Copyright 06Sep2000 Georg Kresse                                                    
   COPYR  = This file is part of the software VASP. Any use, copying, and all other rights are regul
   COPYR  = If you do not have a valid VASP license, you may not use, copy or distribute this file. 
   VRHFIN =S : s2p4                                                                                 
   LEXCH  = PE                                                                                      
   EATOM  =   276.8230 eV,   20.3459 Ry                                                             
                                                                                                    
   TITEL  = PAW_PBE S 06Sep2000                                                                     
   LULTRA =        F    use ultrasoft PP ?                                                          
   IUNSCR =        1    unscreen: 0-lin 1-nonlin 2-no                                               
   RPACOR =    1.500    partial core radius                                                         
   POMASS =   32.066; ZVAL   =    6.000    mass and valenz                                          
   RCORE  =    1.900    outmost cutoff radius                                                       
   RWIGS  =    2.200; RWIGS  =    1.164    wigner-seitz radius (au A)                               
   ENMAX  =  258.689; ENMIN  =  194.016 eV                                                          
   ICORE  =        2    local potential                                                             
   LCOR   =        T    correct aug charges                                                         
   LPAW   =        T    paw PP                                                                      
   EAUG   =  335.092                                                                                
   DEXC   =    0.000                                                                                
   RMAX   =    1.942    core radius for proj-oper                                                   
   RAUG   =    1.300    factor for augmentation sphere                                              
   RDEP   =    1.954    radius for radial grids                                                     
   RDEPT  =    1.744    core radius for aug-charge                                                  
                                                                                                    
   Atomic configuration                                                                             
    6 entries                                                                                       
     n  l   j            E        occ.                                                              
     1  0  0.50     -2405.8406   2.0000                                                             
     2  0  0.50      -211.7007   2.0000                                                             
     2  1  1.50      -156.4958   6.0000                                                             
     3  0  0.50       -17.2562   2.0000                                                             
     3  1  0.50        -7.0085   4.0000                                                             
     3  2  1.50        -6.8029   0.0000                                                             
   Description                                                                                      
     l       E           TYP  RCUT    TYP  RCUT                                                     
     0    -17.2561641     23  1.900                                                                 
     0    -15.8743224     23  1.900                                                                 
     1     -7.0085400     23  1.900                                                                 
     1     -2.7779785     23  1.900                                                                 
     2     -6.8029130     23  1.900                                                                 
  local pseudopotential read in
  partial core-charges read in
  partial kinetic energy density read in
  atomic valenz-charges read in
  non local Contribution for L=           0  read in
    real space projection operators read in
  non local Contribution for L=           0  read in
    real space projection operators read in
  non local Contribution for L=           1  read in
    real space projection operators read in
  non local Contribution for L=           1  read in
    real space projection operators read in
    PAW grid and wavefunctions read in

   number of l-projection  operators is LMAX  =           4
   number of lm-projection operators is LMMAX =           8

 Optimization of the real space projectors (new method)

 maximal supplied QI-value         = 17.01
 optimisation between [QCUT,QGAM] = [ 11.57, 23.30] = [ 37.45,152.03] Ry 
 Optimized for a Real-space Cutoff    1.45 Angstroem

   l    n(q)    QCUT    max X(q) W(low)/X(q) W(high)/X(q)  e(spline) 
   1     10    11.565     4.940    0.87E-04    0.13E-03    0.13E-06
   1     10    11.565     6.253    0.13E-03    0.19E-03    0.20E-06
   0     10    11.565    37.438    0.53E-04    0.73E-05    0.79E-07
   0     10    11.565     9.606    0.27E-04    0.60E-05    0.56E-07
 Optimization of the real space projectors (new method)

 maximal supplied QI-value         = 19.84
 optimisation between [QCUT,QGAM] = [ 11.51, 23.22] = [ 37.09,150.92] Ry 
 Optimized for a Real-space Cutoff    1.21 Angstroem

   l    n(q)    QCUT    max X(q) W(low)/X(q) W(high)/X(q)  e(spline) 
   0      8    11.508   187.594    0.96E-04    0.18E-03    0.54E-07
   0      8    11.508   164.243    0.96E-04    0.18E-03    0.54E-07
   1      8    11.508    67.533    0.18E-03    0.65E-04    0.94E-07
   1      8    11.508    50.729    0.18E-03    0.63E-04    0.92E-07
  PAW_PBE Na_pv 19Sep2006               :
 energy of atom  1       EATOM= -766.0439
 kinetic energy error for atom=    0.0019 (will be added to EATOM!!)
  PAW_PBE S 06Sep2000                   :
 energy of atom  2       EATOM= -276.8230
 kinetic energy error for atom=    0.0016 (will be added to EATOM!!)


 POSCAR: Na16 S32
  positions in direct lattice
  velocities in cartesian coordinates
 exchange correlation table for  LEXCH =        8
   RHO(1)=    0.500       N(1)  =     2000
   RHO(2)=  100.500       N(2)  =     4000



--------------------------------------------------------------------------------------------------------


 ion  position               nearest neighbor table
   1  0.000  0.000  0.828-
   2  0.000  0.000  0.172-
   3  0.000  0.500  0.422-
   4  0.000  0.500  0.078-
   5  0.250  0.227  0.375-
   6  0.773  0.250  0.625-
   7  0.727  0.250  0.125-
   8  0.250  0.273  0.875-
   9  0.500  0.500  0.328-
  10  0.500  0.500  0.672-
  11  0.500  0.000  0.922-
  12  0.500  0.000  0.578-
  13  0.750  0.727  0.875-
  14  0.273  0.750  0.125-
  15  0.227  0.750  0.625-
  16  0.750  0.773  0.375-
  17  0.248  0.467  0.204-  25 2.09
  18  0.533  0.248  0.796-  42 2.09
  19  0.967  0.252  0.296-  43 2.09
  20  0.248  0.033  0.046-  28 2.09
  21  0.752  0.967  0.046-  29 2.09
  22  0.252  0.033  0.704-  30 2.09
  23  0.467  0.748  0.454-  31 2.09
  24  0.533  0.252  0.454-  32 2.09
  25  0.383  0.353  0.103-  28 2.07  17 2.09
  26  0.147  0.883  0.397-  31 2.07  34 2.09
  27  0.353  0.617  0.897-  48 2.07  35 2.09
  28  0.383  0.147  0.147-  25 2.07  20 2.09
  29  0.617  0.853  0.147-  46 2.07  21 2.09
  30  0.117  0.147  0.603-  45 2.07  22 2.09
  31  0.353  0.883  0.353-  26 2.07  23 2.09
  32  0.647  0.117  0.353-  43 2.07  24 2.09
  33  0.748  0.967  0.704-  41 2.09
  34  0.033  0.748  0.296-  26 2.09
  35  0.467  0.752  0.796-  27 2.09
  36  0.748  0.533  0.546-  44 2.09
  37  0.252  0.467  0.546-  45 2.09
  38  0.752  0.533  0.204-  46 2.09
  39  0.967  0.248  0.954-  47 2.09
  40  0.033  0.752  0.954-  48 2.09
  41  0.883  0.853  0.603-  44 2.07  33 2.09
  42  0.647  0.383  0.897-  47 2.07  18 2.09
  43  0.853  0.117  0.397-  32 2.07  19 2.09
  44  0.883  0.647  0.647-  41 2.07  36 2.09
  45  0.117  0.353  0.647-  30 2.07  37 2.09
  46  0.617  0.647  0.103-  29 2.07  38 2.09
  47  0.853  0.383  0.853-  42 2.07  39 2.09
  48  0.147  0.617  0.853-  27 2.07  40 2.09

  LATTYP: Found a simple tetragonal cell.
 ALAT       =     9.6971890487
 C/A-ratio  =     1.2240492948
  
  Lattice vectors:
  
 A1 = (   9.6971890487,   0.0000000000,   0.0000000000)
 A2 = (   0.0000000000,   9.6971890487,   0.0000000000)
 A3 = (   0.0000000000,   0.0000000000,  11.8698374166)


Analysis of symmetry for initial positions (statically):
=====================================================================
 Subroutine PRICEL returns following result:
 
  LATTYP: Found a body centered tetragonal cell.
 ALAT       =     9.6971890487
 C/A-ratio  =     1.2240492948
  
  Lattice vectors:
  
 A1 = (  -4.8485945243,  -4.8485945243,  -5.9349187083)
 A2 = (   4.8485945243,   4.8485945243,  -5.9349187083)
 A3 = (   4.8485945243,  -4.8485945243,   5.9349187083)
 
   2 primitive cells build up your supercell.
 

 Routine SETGRP: Setting up the symmetry group for a 
 simple tetragonal supercell.


 Subroutine GETGRP returns: Found  8 space group operations
 (whereof  4 operations were pure point group operations)
 out of a pool of 16 trial point group operations.


The static configuration has the point symmetry S_4 .
 The point group associated with its full space group is D_2d.


Analysis of symmetry for dynamics (positions and initial velocities):
=====================================================================
 Subroutine PRICEL returns following result:
 
  LATTYP: Found a body centered tetragonal cell.
 ALAT       =     9.6971890487
 C/A-ratio  =     1.2240492948
  
  Lattice vectors:
  
 A1 = (  -4.8485945243,  -4.8485945243,  -5.9349187083)
 A2 = (   4.8485945243,   4.8485945243,  -5.9349187083)
 A3 = (   4.8485945243,  -4.8485945243,   5.9349187083)
 
   2 primitive cells build up your supercell.
 

 Routine SETGRP: Setting up the symmetry group for a 
 simple tetragonal supercell.


 Subroutine GETGRP returns: Found  8 space group operations
 (whereof  4 operations were pure point group operations)
 out of a pool of 16 trial point group operations.


The dynamic configuration has the point symmetry S_4 .
 The point group associated with its full space group is D_2d.


Analysis of structural, dynamic, and magnetic symmetry:
=====================================================================
 Subroutine PRICEL returns following result:
 
  LATTYP: Found a body centered tetragonal cell.
 ALAT       =     9.6971890487
 C/A-ratio  =     1.2240492948
  
  Lattice vectors:
  
 A1 = (  -4.8485945243,  -4.8485945243,  -5.9349187083)
 A2 = (   4.8485945243,   4.8485945243,  -5.9349187083)
 A3 = (   4.8485945243,  -4.8485945243,   5.9349187083)
 
   2 primitive cells build up your supercell.
 

 Routine SETGRP: Setting up the symmetry group for a 
 simple tetragonal supercell.


 Subroutine GETGRP returns: Found  8 space group operations
 (whereof  4 operations were pure point group operations)
 out of a pool of 16 trial point group operations.


The overall configuration has the point symmetry S_4 .
 The point group associated with its full space group is D_2d.


 Subroutine INISYM returns: Found  8 space group operations
 (whereof  4 operations are pure point group operations),
 and found     2 'primitive' translations


----------------------------------------------------------------------------------------

                                     Primitive cell                                     

  volume of cell :     558.0929

  direct lattice vectors                    reciprocal lattice vectors
    -4.848594524 -4.848594524 -5.934918708     0.000000000 -0.103122667 -0.084247152
     4.848594524  4.848594524 -5.934918708     0.103122667 -0.000000000 -0.084247152
     4.848594524 -4.848594524  5.934918708     0.103122667 -0.103122667 -0.000000000

  length of vectors
     9.068682253  9.068682253  9.068682253     0.133161057  0.133161057  0.145837475

  position of ions in fractional coordinates (direct lattice)
     0.171795602  0.171795602  1.000000000
     0.828204398  0.828204398  1.000000000
     0.078204398  0.578204398  0.500000000
     0.421795602  0.921795602  0.500000000
     0.397563450  0.875000000  0.022563450
     0.125000000  0.147563450  0.522563450
     0.625000000  0.602436550  0.477436550
     0.852436550  0.375000000  0.977436550
     0.328873417  0.044596452  0.781179747
     0.955403548  0.736583295  0.284276966
     0.452306330  0.671126583  0.715723034
     0.921126583  0.202306330  0.215723034
     0.986583295  0.705403548  0.784276966
     0.263416705  0.547693670  0.218820253
     0.797693670  0.013416705  0.718820253
     0.294596452  0.078873417  0.281179747
     0.544152841  0.280296460  0.029829862
     0.719703540  0.749533402  0.263856382
     0.485677021  0.455847159  0.736143618
     0.705847159  0.235677021  0.236143618
     0.999533402  0.469703540  0.763856382
     0.250466598  0.514322979  0.970170138
     0.764322979  0.000466598  0.470170138
     0.530296460  0.294152841  0.529829862

  ion indices of the primitive-cell ions
   primitive index   ion index
                 1           1
                 2           2
                 3          11
                 4           4
                 5          13
                 6           6
                 7          15
                 8           8
                 9          33
                10          18
                11          35
                12          20
                13          21
                14          22
                15          39
                16          40
                17          41
                18          26
                19          43
                20          44
                21          45
                22          30
                23          47
                24          48

----------------------------------------------------------------------------------------



 KPOINTS: pymatgen with grid density = 712 / numbe

Automatic generation of k-mesh.
 Grid dimensions read from file:
 generate k-points for:    2    2    2

 Generating k-lattice:

  Cartesian coordinates                     Fractional coordinates (reciprocal lattice)
     0.051561334 -0.000000000  0.000000000     0.500000000 -0.000000000  0.000000000
     0.000000000  0.051561334  0.000000000     0.000000000  0.500000000  0.000000000
    -0.000000000 -0.000000000  0.042123576    -0.000000000 -0.000000000  0.500000000

  Length of vectors
     0.051561334  0.051561334  0.042123576

  Shift w.r.t. Gamma in fractional coordinates (k-lattice)
     0.500000000  0.500000000  0.500000000

 
 Subroutine IBZKPT returns following result:
 ===========================================
 
 Found      1 irreducible k-points:
 
 Following reciprocal coordinates:
            Coordinates               Weight
  0.250000  0.250000  0.250000      8.000000
 
 Following cartesian coordinates:
            Coordinates               Weight
  0.025781  0.025781  0.021062      8.000000
 


--------------------------------------------------------------------------------------------------------




 Dimension of arrays:
   k-points           NKPTS =      1   k-points in BZ     NKDIM =      1   number of bands    NBANDS=    224
   number of dos      NEDOS =    301   number of ions     NIONS =     48
   non local maximal  LDIM  =      4   non local SUM 2l+1 LMDIM =      8
   total plane-waves  NPLWV = 466560
   max r-space proj   IRMAX =   5341   max aug-charges    IRDMAX=  13367
   dimension x,y,z NGX =    72 NGY =   72 NGZ =   90
   dimension x,y,z NGXF=   144 NGYF=  144 NGZF=  180
   support grid    NGXF=   144 NGYF=  144 NGZF=  180
   ions per type =              16  32
   NGX,Y,Z   is equivalent  to a cutoff of  12.34, 12.34, 12.61 a.u.
   NGXF,Y,Z  is equivalent  to a cutoff of  24.69, 24.69, 25.21 a.u.

 SYSTEM =  unknown system                          
 POSCAR =  Na16 S32                                

 Startparameter for this run:
   NWRITE =      2    write-flag & timer
   PREC   = accura    normal or accurate (medium, high low for compatibility)
   ISTART =      0    job   : 0-new  1-cont  2-samecut
   ICHARG =      2    charge: 1-file 2-atom 10-const
   ISPIN  =      2    spin polarized calculation?
   LNONCOLLINEAR =      F non collinear calculations
   LSORBIT =      F    spin-orbit coupling
   INIWAV =      1    electr: 0-lowe 1-rand  2-diag
   LASPH  =      T    aspherical Exc in radial PAW
 Electronic Relaxation 1
   ENCUT  =  520.0 eV  38.22 Ry    6.18 a.u.  18.03 18.03 22.07*2*pi/ulx,y,z
   ENINI  =  520.0     initial cutoff
   ENAUG  =  368.1 eV  augmentation charge cutoff
   NELM   =    100;   NELMIN=  2; NELMDL= -5     # of ELM steps 
   EDIFF  = 0.2E-02   stopping-criterion for ELM
   LREAL  =      T    real-space projection
   NLSPLINE    = F    spline interpolate recip. space projectors
   LCOMPAT=      F    compatible to vasp.4.4
   GGA_COMPAT  = T    GGA compatible to vasp.4.4-vasp.4.6
   LMAXPAW     = -100 max onsite density
   LMAXMIX     =    2 max onsite mixed and CHGCAR
   VOSKOWN=      0    Vosko Wilk Nusair interpolation
   ROPT   =   -0.00025  -0.00025
 Ionic relaxation
   EDIFFG = 0.2E-01   stopping-criterion for IOM
   NSW    =     99    number of steps for IOM
   NBLOCK =      1;   KBLOCK =     99    inner block; outer block 
   IBRION =     -1    ionic relax: 0-MD 1-quasi-New 2-CG
   NFREE  =      0    steps in history (QN), initial steepest desc. (CG)
   ISIF   =      3    stress and relaxation
   IWAVPR =     10    prediction:  0-non 1-charg 2-wave 3-comb
   ISYM   =      2    0-nonsym 1-usesym 2-fastsym
   LCORR  =      T    Harris-Foulkes like correction to forces

   POTIM  = 0.5000    time-step for ionic-motion
   TEIN   =    0.0    initial temperature
   TEBEG  =    0.0;   TEEND  =   0.0 temperature during run
   SMASS  =  -3.00    Nose mass-parameter (am)
   estimated Nose-frequenzy (Omega)   =  0.10E-29 period in steps = 0.13E+47 mass=  -0.215E-26a.u.
   SCALEE = 1.0000    scale energy and forces
   NPACO  =    256;   APACO  = 10.0  distance and # of slots for P.C.
   PSTRESS=    0.0 pullay stress

  Mass of Ions in am
   POMASS =  22.99 32.07
  Ionic Valenz
   ZVAL   =   7.00  6.00
  Atomic Wigner-Seitz radii
   RWIGS  =  -1.00 -1.00
  virtual crystal weights 
   VCA    =   1.00  1.00
   NELECT =     304.0000    total number of electrons
   NUPDOWN=      -1.0000    fix difference up-down

 DOS related values:
   EMIN   =  10.00;   EMAX   =-10.00  energy-range for DOS
   EFERMI =   0.00
   ISMEAR =     0;   SIGMA  =   0.05  broadening in eV -4-tet -1-fermi 0-gaus

 Electronic relaxation 2 (details)
   IALGO  =     68    algorithm
   LDIAG  =      T    sub-space diagonalisation (order eigenvalues)
   LSUBROT=      F    optimize rotation matrix (better conditioning)
   TURBO    =      0    0=normal 1=particle mesh
   IRESTART =      0    0=no restart 2=restart with 2 vectors
   NREBOOT  =      0    no. of reboots
   NMIN     =      0    reboot dimension
   EREF     =   0.00    reference energy to select bands
   IMIX   =      4    mixing-type and parameters
     AMIX     =   0.40;   BMIX     =  1.00
     AMIX_MAG =   1.60;   BMIX_MAG =  1.00
     AMIN     =   0.10
     WC   =   100.;   INIMIX=   1;  MIXPRE=   1;  MAXMIX= -45

 Intra band minimization:
   WEIMIN = 0.0000     energy-eigenvalue tresh-hold
   EBREAK =  0.27E-05  absolut break condition
   DEPER  =   0.30     relativ break condition  

   TIME   =   0.40     timestep for ELM

  volume/ion in A,a.u.               =      23.25       156.92
  Fermi-wavevector in a.u.,A,eV,Ry     =   1.061175  2.005331 15.321430  1.126093
  Thomas-Fermi vector in A             =   2.196582

 Write flags
   LWAVE        =      F    write WAVECAR
   LDOWNSAMPLE  =      F    k-point downsampling of WAVECAR
   LCHARG       =      T    write CHGCAR
   LVTOT        =      F    write LOCPOT, total local potential
   LVHAR        =      F    write LOCPOT, Hartree potential only
   LELF         =      F    write electronic localiz. function (ELF)
   LORBIT       =      0    0 simple, 1 ext, 2 COOP (PROOUT), +10 PAW based schemes


 Dipole corrections
   LMONO  =      F    monopole corrections only (constant potential shift)
   LDIPOL =      F    correct potential (dipole corrections)
   IDIPOL =      0    1-x, 2-y, 3-z, 4-all directions 
   EPSILON=  1.0000000 bulk dielectric constant

 Exchange correlation treatment:
   GGA     =    --    GGA type
   LEXCH   =     8    internal setting for exchange type
   LIBXC   =     F    Libxc                    
   VOSKOWN =     0    Vosko Wilk Nusair interpolation
   LHFCALC =     F    Hartree Fock is set to
   LHFONE  =     F    Hartree Fock one center treatment
   AEXX    =    0.0000 exact exchange contribution

 Linear response parameters
   LEPSILON=     F    determine dielectric tensor
   LRPA    =     F    only Hartree local field effects (RPA)
   LNABLA  =     F    use nabla operator in PAW spheres
   LVEL    =     F    velocity operator in full k-point grid
   CSHIFT  =0.1000    complex shift for real part using Kramers Kronig
   OMEGAMAX=  -1.0    maximum frequency
   DEG_THRESHOLD= 0.2000000E-02 threshold for treating states as degnerate
   RTIME   =   -0.100 relaxation time in fs
  (WPLASMAI=    0.000 imaginary part of plasma frequency in eV, 0.658/RTIME)
   DFIELD  = 0.0000000 0.0000000 0.0000000 field for delta impulse in time

  Optional k-point grid parameters
   LKPOINTS_OPT  =     F    use optional k-point grid
   KPOINTS_OPT_MODE=     1    mode for optional k-point grid

 Orbital magnetization related:
   ORBITALMAG=     F  switch on orbital magnetization
   LCHIMAG   =     F  perturbation theory with respect to B field
   DQ        =  0.001000  dq finite difference perturbation B field
   LLRAUG    =     F  two centre corrections for induced B field



--------------------------------------------------------------------------------------------------------


 Static calculation
 charge density and potential will be updated during run
 spin polarized calculation
 RMM-DIIS sequential band-by-band and
  variant of blocked Davidson during initial phase
 perform sub-space diagonalisation
    before iterative eigenvector-optimisation
 modified Broyden-mixing scheme, WC =      100.0
 initial mixing is a Kerker type mixing with AMIX =  0.4000 and BMIX =      1.0000
 Hartree-type preconditioning will be used
 using additional bands           72
 real space projection scheme for non local part
 use partial core corrections
 calculate Harris-corrections to forces   (improved forces if not selfconsistent)
 use gradient corrections 
 use of overlap-Matrix (Vanderbilt PP)
 Gauss-broadening in eV      SIGMA  =   0.05


--------------------------------------------------------------------------------------------------------


  energy-cutoff  :      520.00
  volume of cell :     1116.19
      direct lattice vectors                 reciprocal lattice vectors
     9.697189049  0.000000000  0.000000000     0.103122667 -0.000000000  0.000000000
     0.000000000  9.697189049  0.000000000     0.000000000  0.103122667  0.000000000
     0.000000000  0.000000000 11.869837417    -0.000000000 -0.000000000  0.084247152

  length of vectors
     9.697189049  9.697189049 11.869837417     0.103122667  0.103122667  0.084247152



 k-points in units of 2pi/SCALE and weight: pymatgen with grid density = 712 / numbe
   0.02578067  0.02578067  0.02106179       1.000

 k-points in reciprocal lattice and weights: pymatgen with grid density = 712 / numbe
   0.25000000  0.25000000  0.25000000       1.000

 position of ions in fractional coordinates (direct lattice) 
   0.00000000  0.00000000  0.82820440
   0.00000000  0.00000000  0.17179560
   0.00000000  0.50000000  0.42179560
   0.00000000  0.50000000  0.07820440
   0.25000000  0.22743655  0.37500000
   0.77256345  0.25000000  0.62500000
   0.72743655  0.25000000  0.12500000
   0.25000000  0.27256345  0.87500000
   0.50000000  0.50000000  0.32820440
   0.50000000  0.50000000  0.67179560
   0.50000000  0.00000000  0.92179560
   0.50000000  0.00000000  0.57820440
   0.75000000  0.72743655  0.87500000
   0.27256345  0.75000000  0.12500000
   0.22743655  0.75000000  0.62500000
   0.75000000  0.77256345  0.37500000
   0.24845139  0.46727164  0.20385494
   0.53272836  0.24845139  0.79614506
   0.96727164  0.25154861  0.29614506
   0.24845139  0.03272836  0.04614506
   0.75154861  0.96727164  0.04614506
   0.25154861  0.03272836  0.70385494
   0.46727164  0.74845139  0.45385494
   0.53272836  0.25154861  0.45385494
   0.38298674  0.35315688  0.10269028
   0.14684312  0.88298674  0.39730972
   0.35315688  0.61701326  0.89730972
   0.38298674  0.14684312  0.14730972
   0.61701326  0.85315688  0.14730972
   0.11701326  0.14684312  0.60269028
   0.35315688  0.88298674  0.35269028
   0.64684312  0.11701326  0.35269028
   0.74845139  0.96727164  0.70385494
   0.03272836  0.74845139  0.29614506
   0.46727164  0.75154861  0.79614506
   0.74845139  0.53272836  0.54614506
   0.25154861  0.46727164  0.54614506
   0.75154861  0.53272836  0.20385494
   0.96727164  0.24845139  0.95385494
   0.03272836  0.75154861  0.95385494
   0.88298674  0.85315688  0.60269028
   0.64684312  0.38298674  0.89730972
   0.85315688  0.11701326  0.39730972
   0.88298674  0.64684312  0.64730972
   0.11701326  0.35315688  0.64730972
   0.61701326  0.64684312  0.10269028
   0.85315688  0.38298674  0.85269028
   0.14684312  0.61701326  0.85269028

 position of ions in cartesian coordinates  (Angst):
   0.00000000  0.00000000  9.83065156
   0.00000000  0.00000000  2.03918586
   0.00000000  4.84859452  5.00664521
   0.00000000  4.84859452  0.92827349
   2.42429726  2.20549522  4.45118903
   7.49169383  2.42429726  7.41864839
   7.05408974  2.42429726  1.48372968
   2.42429726  2.64309930 10.38610774
   4.84859452  4.84859452  3.89573285
   4.84859452  4.84859452  7.97410457
   4.84859452  0.00000000 10.94156392
   4.84859452  0.00000000  6.86319220
   7.27289179  7.05408974 10.38610774
   2.64309930  7.27289179  1.48372968
   2.20549522  7.27289179  7.41864839
   7.27289179  7.49169383  4.45118903
   2.40928010  4.53122147  2.41972498
   5.16596758  2.40928010  9.45011243
   9.37981599  2.43931442  3.51519373
   2.40928010  0.31737306  0.54773437
   7.28790894  9.37981599  0.54773437
   2.43931442  0.31737306  8.35464369
   4.53122147  7.25787463  5.38718434
   5.16596758  2.43931442  5.38718434
   3.71389482  3.42462901  1.21891693
   1.42396551  8.56248935  4.71600177
   3.42462901  5.98329422 10.65092048
   3.71389482  1.42396551  1.74854242
   5.98329422  8.27322354  1.74854242
   1.13469970  1.42396551  7.15383564
   3.42462901  8.56248935  4.18637629
   6.27256004  1.13469970  4.18637629
   7.25787463  9.37981599  8.35464369
   0.31737306  7.25787463  3.51519373
   4.53122147  7.28790894  9.45011243
   7.25787463  5.16596758  6.48265308
   2.43931442  4.53122147  6.48265308
   7.28790894  5.16596758  2.41972498
   9.37981599  2.40928010 11.32210304
   0.31737306  7.28790894 11.32210304
   8.56248935  8.27322354  7.15383564
   6.27256004  3.71389482 10.65092048
   8.27322354  1.13469970  4.71600177
   8.56248935  6.27256004  7.68346113
   1.13469970  3.42462901  7.68346113
   5.98329422  6.27256004  1.21891693
   8.27322354  3.71389482 10.12129500
   1.42396551  5.98329422 10.12129500



--------------------------------------------------------------------------------------------------------


 k-point   1 :   0.2500 0.2500 0.2500  plane waves:   30009

 maximum and minimum number of plane-waves per node :     30009    30009

 maximum number of plane-waves:     30009
 maximum index in each direction: 
   IXMAX=   17   IYMAX=   17   IZMAX=   21
   IXMIN=  -18   IYMIN=  -18   IZMIN=  -22


 serial   3D FFT for wavefunctions
 parallel 3D FFT for charge:
    minimum data exchange during FFTs selected (reduces bandwidth)


 total amount of memory used by VASP MPI-rank0   108213. kBytes
=======================================================================

   base      :      30000. kBytes
   nonlr-proj:      16935. kBytes
   fftplans  :       6225. kBytes
   grid      :      47950. kBytes
   one-center:        294. kBytes
   wavefun   :       6809. kBytes

     INWAV:  cpu time      0.0000: real time      0.0003
 Broyden mixing: mesh for mixing (old mesh)
   NGX = 37   NGY = 37   NGZ = 45
  (NGX  =144   NGY  =144   NGZ  =180)
  gives a total of  61605 points

 initial charge density was supplied:
 charge density of overlapping atoms calculated
 number of electron     304.0000000 magnetization      28.8000000
 keeping initial charge density in first step


--------------------------------------------------------------------------------------------------------


 Maximum index for non-local projection operator         5142
 Maximum index for augmentation-charges          852 (set IRDMAX)


--------------------------------------------------------------------------------------------------------


 First call to EWALD:  gamma=   0.171
 Maximum number of real-space cells 3x 3x 2
 Maximum number of reciprocal cells 3x 3x 3

    FEWALD:  cpu time      0.0017: real time      0.0017


--------------------------------------- Iteration      1(   1)  ---------------------------------------


    POTLOK:  cpu time      0.5218: real time      0.5221
    SETDIJ:  cpu time      1.0244: real time      1.0245
     EDDAV:  cpu time      4.0014: real time      4.0019
       DOS:  cpu time      0.0013: real time      0.0014
    --------------------------------------------
      LOOP:  cpu time      5.5489: real time      5.5499

 eigenvalue-minimisations  :   896
 total energy-change (2. order) : 0.2756519E+04  (-0.1353392E+05)
 number of electron     304.0000000 magnetization      28.8000000
 augmentation part      304.0000000 magnetization      28.8000000

 Free energy of the ion-electron system (eV)
  ---------------------------------------------------
  alpha Z        PSCENC =       409.06785063
  Ewald energy   TEWEN  =    -13338.77934060
  -Hartree energ DENC   =     -5020.53897199
  -exchange      EXHF   =         0.00000000
  -V(xc)+E(xc)   XCENC  =       787.24592811
  PAW double counting   =     14995.27650495   -16309.91802663
  entropy T*S    EENTRO =        -0.00052648
  eigenvalues    EBANDS =       119.20863338
  atomic energy  EATOM  =     21114.95738227
  Solvation  Ediel_sol  =         0.00000000
  ---------------------------------------------------
  free energy    TOTEN  =      2756.51943364 eV

  energy without entropy =     2756.51996013  energy(sigma->0) =     2756.51969688


--------------------------------------------------------------------------------------------------------




--------------------------------------- Iteration      1(   2)  ---------------------------------------


     EDDAV:  cpu time      4.4457: real time      4.4488
       DOS:  cpu time      0.0014: real time      0.0015
    --------------------------------------------
      LOOP:  cpu time      4.4471: real time      4.4503

 eigenvalue-minimisations  :   960
 total energy-change (2. order) :-0.2562625E+04  (-0.2392173E+04)
 number of electron     304.0000000 magnetization      28.8000000
 augmentation part      304.0000000 magnetization      28.8000000

 Free energy of the ion-electron system (eV)
  ---------------------------------------------------
  alpha Z        PSCENC =       409.06785063
  Ewald energy   TEWEN  =    -13338.77934060
  -Hartree energ DENC   =     -5020.53897199
  -exchange      EXHF   =         0.00000000
  -V(xc)+E(xc)   XCENC  =       787.24592811
  PAW double counting   =     14995.27650495   -16309.91802663
  entropy T*S    EENTRO =        -0.00000000
  eigenvalues    EBANDS =     -2443.41660764
  atomic energy  EATOM  =     21114.95738227
  Solvation  Ediel_sol  =         0.00000000
  ---------------------------------------------------
  free energy    TOTEN  =       193.89471910 eV

  energy without entropy =      193.89471910  energy(sigma->0) =      193.89471910


--------------------------------------------------------------------------------------------------------




--------------------------------------- Iteration      1(   3)  ---------------------------------------


     EDDAV:  cpu time      2.8399: real time      2.8406
       DOS:  cpu time      0.0008: real time      0.0008
    --------------------------------------------
      LOOP:  cpu time      2.8407: real time      2.8414

 eigenvalue-minimisations  :  1152
 total energy-change (2. order) :-0.3605370E+03  (-0.3536638E+03)
 number of electron     304.0000000 magnetization      28.8000000
 augmentation part      304.0000000 magnetization      28.8000000

 Free energy of the ion-electron system (eV)
  ---------------------------------------------------
  alpha Z        PSCENC =       409.06785063
  Ewald energy   TEWEN  =    -13338.77934060
  -Hartree energ DENC   =     -5020.53897199
  -exchange      EXHF   =         0.00000000
  -V(xc)+E(xc)   XCENC  =       787.24592811
  PAW double counting   =     14995.27650495   -16309.91802663
  entropy T*S    EENTRO =        -0.00000000
  eigenvalues    EBANDS =     -2803.95358403
  atomic energy  EATOM  =     21114.95738227
  Solvation  Ediel_sol  =         0.00000000
  ---------------------------------------------------
  free energy    TOTEN  =      -166.64225729 eV

  energy without entropy =     -166.64225729  energy(sigma->0) =     -166.64225729


--------------------------------------------------------------------------------------------------------




--------------------------------------- Iteration      1(   4)  ---------------------------------------


     EDDAV:  cpu time      2.8535: real time      2.8540
       DOS:  cpu time      0.0008: real time      0.0008
    --------------------------------------------
      LOOP:  cpu time      2.8543: real time      2.8549

 eigenvalue-minimisations  :  1120
 total energy-change (2. order) :-0.1481070E+02  (-0.1466772E+02)
 number of electron     304.0000000 magnetization      28.8000000
 augmentation part      304.0000000 magnetization      28.8000000

 Free energy of the ion-electron system (eV)
  ---------------------------------------------------
  alpha Z        PSCENC =       409.06785063
  Ewald energy   TEWEN  =    -13338.77934060
  -Hartree energ DENC   =     -5020.53897199
  -exchange      EXHF   =         0.00000000
  -V(xc)+E(xc)   XCENC  =       787.24592811
  PAW double counting   =     14995.27650495   -16309.91802663
  entropy T*S    EENTRO =        -0.00000000
  eigenvalues    EBANDS =     -2818.76428507
  atomic energy  EATOM  =     21114.95738227
  Solvation  Ediel_sol  =         0.00000000
  ---------------------------------------------------
  free energy    TOTEN  =      -181.45295832 eV

  energy without entropy =     -181.45295832  energy(sigma->0) =     -181.45295832


--------------------------------------------------------------------------------------------------------




--------------------------------------- Iteration      1(   5)  ---------------------------------------


     EDDAV:  cpu time      3.0175: real time      3.0179
       DOS:  cpu time      0.0008: real time      0.0009
    CHARGE:  cpu time      0.9599: real time      0.9599
    MIXING:  cpu time      0.0043: real time      0.0043
    --------------------------------------------
      LOOP:  cpu time      3.9824: real time      3.9830

 eigenvalue-minimisations  :  1216
 total energy-change (2. order) :-0.5028363E+00  (-0.5022304E+00)
 number of electron     303.9999783 magnetization      18.7143384
 augmentation part       44.3779501 magnetization      18.9137932

 Broyden mixing:
  rms(total) = 0.54085E+01    rms(broyden)= 0.54085E+01
  rms(prec ) = 0.55266E+01
  weight for this iteration     100.00

 Free energy of the ion-electron system (eV)
  ---------------------------------------------------
  alpha Z        PSCENC =       409.06785063
  Ewald energy   TEWEN  =    -13338.77934060
  -Hartree energ DENC   =     -5020.53897199
  -exchange      EXHF   =         0.00000000
  -V(xc)+E(xc)   XCENC  =       787.24592811
  PAW double counting   =     14995.27650495   -16309.91802663
  entropy T*S    EENTRO =        -0.00000000
  eigenvalues    EBANDS =     -2819.26712132
  atomic energy  EATOM  =     21114.95738227
  Solvation  Ediel_sol  =         0.00000000
  ---------------------------------------------------
  free energy    TOTEN  =      -181.95579458 eV

  energy without entropy =     -181.95579458  energy(sigma->0) =     -181.95579458


--------------------------------------------------------------------------------------------------------




--------------------------------------- Iteration      1(   6)  ---------------------------------------


    POTLOK:  cpu time      0.2790: real time      0.2794
    SETDIJ:  cpu time      0.9589: real time      0.9590
    EDDIAG:  cpu time      2.3287: real time      2.3290
  RMM-DIIS:  cpu time      1.4513: real time      1.4541
    ORTHCH:  cpu time      0.0560: real time      0.0560
       DOS:  cpu time      0.0023: real time      0.0024
    CHARGE:  cpu time      0.9330: real time      0.9331
    MIXING:  cpu time      0.0039: real time      0.0039
    --------------------------------------------
      LOOP:  cpu time      6.0132: real time      6.0168

 eigenvalue-minimisations  :  1095
 total energy-change (2. order) : 0.3568254E+01  (-0.1188104E+01)
 number of electron     303.9999782 magnetization       9.5872091
 augmentation part       44.7612219 magnetization       9.6058349

 Broyden mixing:
  rms(total) = 0.31396E+01    rms(broyden)= 0.31396E+01
  rms(prec ) = 0.31735E+01
  weight for this iteration     100.00

 eigenvalues of (default mixing * dielectric matrix)
  average eigenvalue GAMMA=   0.9862
  0.9862

 Free energy of the ion-electron system (eV)
  ---------------------------------------------------
  alpha Z        PSCENC =       409.06785063
  Ewald energy   TEWEN  =    -13338.77934060
  -Hartree energ DENC   =     -5052.25928752
  -exchange      EXHF   =         0.00000000
  -V(xc)+E(xc)   XCENC  =       794.27421932
  PAW double counting   =     19074.60663820   -20389.13546941
  entropy T*S    EENTRO =        -0.00000000
  eigenvalues    EBANDS =     -2791.11953345
  atomic energy  EATOM  =     21114.95738227
  Solvation  Ediel_sol  =         0.00000000
  ---------------------------------------------------
  free energy    TOTEN  =      -178.38754057 eV

  energy without entropy =     -178.38754057  energy(sigma->0) =     -178.38754057


--------------------------------------------------------------------------------------------------------




--------------------------------------- Iteration      1(   7)  ---------------------------------------


    POTLOK:  cpu time      0.2734: real time      0.2736
    SETDIJ:  cpu time      0.9749: real time      0.9750
    EDDIAG:  cpu time      0.5064: real time      0.5065
  RMM-DIIS:  cpu time      1.4587: real time      1.4589
    ORTHCH:  cpu time      0.0519: real time      0.0519
       DOS:  cpu time      0.0003: real time      0.0005
    CHARGE:  cpu time      0.9848: real time      0.9851
    MIXING:  cpu time      0.0039: real time      0.0039
    --------------------------------------------
      LOOP:  cpu time      4.2543: real time      4.2553

 eigenvalue-minimisations  :  1083
 total energy-change (2. order) :-0.1929541E+01  (-0.4481616E+00)
 number of electron     303.9999782 magnetization       2.1272518
 augmentation part       44.9409940 magnetization       2.3774052

 Broyden mixing:
  rms(total) = 0.15571E+01    rms(broyden)= 0.15571E+01
  rms(prec ) = 0.15713E+01
  weight for this iteration     100.00

 eigenvalues of (default mixing * dielectric matrix)
  average eigenvalue GAMMA=   1.5566
  0.7249  2.3882

 Free energy of the ion-electron system (eV)
  ---------------------------------------------------
  alpha Z        PSCENC =       409.06785063
  Ewald energy   TEWEN  =    -13338.77934060
  -Hartree energ DENC   =     -5072.48394805
  -exchange      EXHF   =         0.00000000
  -V(xc)+E(xc)   XCENC  =       794.87421191
  PAW double counting   =     23558.64226930   -24875.16757609
  entropy T*S    EENTRO =        -0.00000000
  eigenvalues    EBANDS =     -2771.42793138
  atomic energy  EATOM  =     21114.95738227
  Solvation  Ediel_sol  =         0.00000000
  ---------------------------------------------------
  free energy    TOTEN  =      -180.31708201 eV

  energy without entropy =     -180.31708201  energy(sigma->0) =     -180.31708201


--------------------------------------------------------------------------------------------------------




--------------------------------------- Iteration      1(   8)  ---------------------------------------


    POTLOK:  cpu time      1.5510: real time      1.5513
    SETDIJ:  cpu time      0.9749: real time      0.9749
    EDDIAG:  cpu time      0.3973: real time      0.3974
  RMM-DIIS:  cpu time      1.5198: real time      1.5200
    ORTHCH:  cpu time      0.0522: real time      0.0522
       DOS:  cpu time      0.0004: real time      0.0005
    CHARGE:  cpu time      0.9188: real time      0.9188
    MIXING:  cpu time      0.0046: real time      0.0046
    --------------------------------------------
      LOOP:  cpu time      5.4189: real time      5.4197

 eigenvalue-minimisations  :  1121
 total energy-change (2. order) :-0.1008732E+01  (-0.2022733E+00)
 number of electron     303.9999782 magnetization       1.0060036
 augmentation part       45.0608720 magnetization       1.0226059

 Broyden mixing:
  rms(total) = 0.22132E+00    rms(broyden)= 0.22132E+00
  rms(prec ) = 0.23252E+00
  weight for this iteration     100.00

 eigenvalues of (default mixing * dielectric matrix)
  average eigenvalue GAMMA=   1.3870
  2.5281  0.9275  0.7055

 Free energy of the ion-electron system (eV)
  ---------------------------------------------------
  alpha Z        PSCENC =       409.06785063
  Ewald energy   TEWEN  =    -13338.77934060
  -Hartree energ DENC   =     -5086.73219609
  -exchange      EXHF   =         0.00000000
  -V(xc)+E(xc)   XCENC  =       797.31496264
  PAW double counting   =     27742.72840381   -29061.53529090
  entropy T*S    EENTRO =        -0.00000000
  eigenvalues    EBANDS =     -2758.34758548
  atomic energy  EATOM  =     21114.95738227
  Solvation  Ediel_sol  =         0.00000000
  ---------------------------------------------------
  free energy    TOTEN  =      -181.32581371 eV

  energy without entropy =     -181.32581371  energy(sigma->0) =     -181.32581371


--------------------------------------------------------------------------------------------------------




--------------------------------------- Iteration      1(   9)  ---------------------------------------


    POTLOK:  cpu time      0.2787: real time      0.2790
    SETDIJ:  cpu time      0.9461: real time      0.9461
    EDDIAG:  cpu time      0.4002: real time      0.4003
  RMM-DIIS:  cpu time      1.9453: real time      1.9455
    ORTHCH:  cpu time      0.0528: real time      0.0528
       DOS:  cpu time      0.0004: real time      0.0005
    CHARGE:  cpu time      0.9500: real time      0.9501
    MIXING:  cpu time      0.0038: real time      0.0038
    --------------------------------------------
      LOOP:  cpu time      4.5774: real time      4.5781

 eigenvalue-minimisations  :  1443
 total energy-change (2. order) :-0.7378238E-01  (-0.3884758E-01)
 number of electron     303.9999782 magnetization       0.6868798
 augmentation part       45.0521661 magnetization       0.7089566

 Broyden mixing:
  rms(total) = 0.11901E+00    rms(broyden)= 0.11901E+00
  rms(prec ) = 0.12834E+00
  weight for this iteration     100.00

 eigenvalues of (default mixing * dielectric matrix)
  average eigenvalue GAMMA=   1.2990
  2.5037  1.2620  0.7478  0.6827

 Free energy of the ion-electron system (eV)
  ---------------------------------------------------
  alpha Z        PSCENC =       409.06785063
  Ewald energy   TEWEN  =    -13338.77934060
  -Hartree energ DENC   =     -5084.08441554
  -exchange      EXHF   =         0.00000000
  -V(xc)+E(xc)   XCENC  =       797.32411389
  PAW double counting   =     28184.39162539   -29503.77704315
  entropy T*S    EENTRO =        -0.00000000
  eigenvalues    EBANDS =     -2760.49976898
  atomic energy  EATOM  =     21114.95738227
  Solvation  Ediel_sol  =         0.00000000
  ---------------------------------------------------
  free energy    TOTEN  =      -181.39959608 eV

  energy without entropy =     -181.39959608  energy(sigma->0) =     -181.39959608


--------------------------------------------------------------------------------------------------------




--------------------------------------- Iteration      1(  10)  ---------------------------------------


    POTLOK:  cpu time      0.2933: real time      0.2937
    SETDIJ:  cpu time      0.9499: real time      0.9502
    EDDIAG:  cpu time      0.4008: real time      0.4008
  RMM-DIIS:  cpu time      1.6853: real time      1.6855
    ORTHCH:  cpu time      0.0554: real time      0.0554
       DOS:  cpu time      0.0004: real time      0.0005
    CHARGE:  cpu time      0.8764: real time      0.8765
    MIXING:  cpu time      0.0039: real time      0.0039
    --------------------------------------------
      LOOP:  cpu time      4.2653: real time      4.2663

 eigenvalue-minimisations  :  1302
 total energy-change (2. order) :-0.1849754E-01  (-0.6886394E-02)
 number of electron     303.9999782 magnetization       0.3809517
 augmentation part       45.0280733 magnetization       0.4031411

 Broyden mixing:
  rms(total) = 0.71380E-01    rms(broyden)= 0.71380E-01
  rms(prec ) = 0.75719E-01
  weight for this iteration     100.00

 eigenvalues of (default mixing * dielectric matrix)
  average eigenvalue GAMMA=   1.3045
  2.3382  1.8555  0.9530  0.7319  0.6440

 Free energy of the ion-electron system (eV)
  ---------------------------------------------------
  alpha Z        PSCENC =       409.06785063
  Ewald energy   TEWEN  =    -13338.77934060
  -Hartree energ DENC   =     -5081.14161326
  -exchange      EXHF   =         0.00000000
  -V(xc)+E(xc)   XCENC  =       797.12001700
  PAW double counting   =     28218.31794105   -29537.73630125
  entropy T*S    EENTRO =        -0.00000000
  eigenvalues    EBANDS =     -2763.22402947
  atomic energy  EATOM  =     21114.95738227
  Solvation  Ediel_sol  =         0.00000000
  ---------------------------------------------------
  free energy    TOTEN  =      -181.41809362 eV

  energy without entropy =     -181.41809362  energy(sigma->0) =     -181.41809362


--------------------------------------------------------------------------------------------------------




--------------------------------------- Iteration      1(  11)  ---------------------------------------


    POTLOK:  cpu time      5.1244: real time      5.1257
    SETDIJ:  cpu time      1.1259: real time      1.1262
    EDDIAG:  cpu time      1.0611: real time      1.0613
  RMM-DIIS:  cpu time      1.5210: real time      1.5214
    ORTHCH:  cpu time      0.1231: real time      0.1231
       DOS:  cpu time      0.0003: real time      0.0004
    CHARGE:  cpu time      0.9313: real time      0.9317
    MIXING:  cpu time      0.0046: real time      0.0046
    --------------------------------------------
      LOOP:  cpu time      9.8917: real time      9.8944

 eigenvalue-minimisations  :  1133
 total energy-change (2. order) :-0.7303891E-02  (-0.2761251E-02)
 number of electron     303.9999782 magnetization       0.2222587
 augmentation part       45.0117152 magnetization       0.2238597

 Broyden mixing:
  rms(total) = 0.31050E-01    rms(broyden)= 0.31050E-01
  rms(prec ) = 0.32504E-01
  weight for this iteration     100.00

 eigenvalues of (default mixing * dielectric matrix)
  average eigenvalue GAMMA=   1.3457
  2.2944  2.2944  1.2897  0.8562  0.7283  0.6110

 Free energy of the ion-electron system (eV)
  ---------------------------------------------------
  alpha Z        PSCENC =       409.06785063
  Ewald energy   TEWEN  =    -13338.77934060
  -Hartree energ DENC   =     -5078.74071164
  -exchange      EXHF   =         0.00000000
  -V(xc)+E(xc)   XCENC  =       796.96602676
  PAW double counting   =     28205.35291327   -29524.59122535
  entropy T*S    EENTRO =        -0.00000000
  eigenvalues    EBANDS =     -2765.65829286
  atomic energy  EATOM  =     21114.95738227
  Solvation  Ediel_sol  =         0.00000000
  ---------------------------------------------------
  free energy    TOTEN  =      -181.42539751 eV

  energy without entropy =     -181.42539751  energy(sigma->0) =     -181.42539751


--------------------------------------------------------------------------------------------------------




--------------------------------------- Iteration      1(  12)  ---------------------------------------


    POTLOK:  cpu time      0.2849: real time      0.2851
    SETDIJ:  cpu time      0.9257: real time      0.9377
    EDDIAG:  cpu time      0.4058: real time      0.4058
  RMM-DIIS:  cpu time      1.5363: real time      1.5367
    ORTHCH:  cpu time      0.0561: real time      0.0561
       DOS:  cpu time      0.0004: real time      0.0005
    --------------------------------------------
      LOOP:  cpu time      3.2092: real time      3.2220

 eigenvalue-minimisations  :  1096
 total energy-change (2. order) :-0.1749753E-02  (-0.7176926E-03)
 number of electron     303.9999782 magnetization       0.2222587
 augmentation part       45.0117152 magnetization       0.2238597

 Free energy of the ion-electron system (eV)
  ---------------------------------------------------
  alpha Z        PSCENC =       409.06785063
  Ewald energy   TEWEN  =    -13338.77934060
  -Hartree energ DENC   =     -5079.22830616
  -exchange      EXHF   =         0.00000000
  -V(xc)+E(xc)   XCENC  =       797.02821482
  PAW double counting   =     28205.24282425   -29524.48707163
  entropy T*S    EENTRO =        -0.00000000
  eigenvalues    EBANDS =     -2765.22870086
  atomic energy  EATOM  =     21114.95738227
  Solvation  Ediel_sol  =         0.00000000
  ---------------------------------------------------
  free energy    TOTEN  =      -181.42714727 eV

  energy without entropy =     -181.42714727  energy(sigma->0) =     -181.42714727


--------------------------------------------------------------------------------------------------------




 average (electrostatic) potential at core
  the test charge radii are     0.9254  0.9698
  (the norm of the test charge is              1.0000)
       1 -46.6522       2 -46.6522       3 -46.6522       4 -46.6522       5 -46.9087
       6 -46.9087       7 -46.9087       8 -46.9087       9 -46.6522      10 -46.6522
      11 -46.6522      12 -46.6522      13 -46.9087      14 -46.9087      15 -46.9087
      16 -46.9087      17 -88.6608      18 -88.6608      19 -88.6608      20 -88.6608
      21 -88.6608      22 -88.6608      23 -88.6608      24 -88.6608      25 -90.1302
      26 -90.1302      27 -90.1302      28 -90.1302      29 -90.1302      30 -90.1302
      31 -90.1302      32 -90.1302      33 -88.6608      34 -88.6608      35 -88.6608
      36 -88.6608      37 -88.6608      38 -88.6608      39 -88.6608      40 -88.6608
      41 -90.1302      42 -90.1302      43 -90.1302      44 -90.1302      45 -90.1302
      46 -90.1302      47 -90.1302      48 -90.1302



 E-fermi :   2.2663     XC(G=0):  -8.3207     alpha+bet : -8.3683

 Fermi energy:         2.2663287052

 spin component 1

 k-point     1 :       0.2500    0.2500    0.2500
  band No.  band energies     occupation 
      1     -21.1113      1.00000
      2     -21.1113      1.00000
      3     -21.1113      1.00000
      4     -21.1113      1.00000
      5     -21.1111      1.00000
      6     -21.1111      1.00000
      7     -21.1111      1.00000
      8     -21.1110      1.00000
      9     -21.1065      1.00000
     10     -21.1064      1.00000
     11     -21.1064      1.00000
     12     -21.1064      1.00000
     13     -21.1061      1.00000
     14     -21.1061      1.00000
     15     -21.1061      1.00000
     16     -21.1060      1.00000
     17     -21.0791      1.00000
     18     -21.0791      1.00000
     19     -21.0791      1.00000
     20     -21.0791      1.00000
     21     -21.0790      1.00000
     22     -21.0789      1.00000
     23     -21.0789      1.00000
     24     -21.0788      1.00000
     25     -20.8605      1.00000
     26     -20.8604      1.00000
     27     -20.8601      1.00000
     28     -20.8599      1.00000
     29     -20.8563      1.00000
     30     -20.8562      1.00000
     31     -20.8561      1.00000
     32     -20.8560      1.00000
     33     -20.8518      1.00000
     34     -20.8518      1.00000
     35     -20.8517      1.00000
     36     -20.8517      1.00000
     37     -20.8512      1.00000
     38     -20.8512      1.00000
     39     -20.8511      1.00000
     40     -20.8511      1.00000
     41     -20.8273      1.00000
     42     -20.8273      1.00000
     43     -20.8272      1.00000
     44     -20.8272      1.00000
     45     -20.8267      1.00000
     46     -20.8267      1.00000
     47     -20.8266      1.00000
     48     -20.8266      1.00000
     49     -13.6985      1.00000
     50     -13.6582      1.00000
     51     -13.6111      1.00000
     52     -13.5837      1.00000
     53     -13.5667      1.00000
     54     -13.5636      1.00000
     55     -13.5596      1.00000
     56     -13.5477      1.00000
     57     -11.6416      1.00000
     58     -11.6250      1.00000
     59     -11.5897      1.00000
     60     -11.5631      1.00000
     61     -11.5398      1.00000
     62     -11.5293      1.00000
     63     -11.5261      1.00000
     64     -11.5217      1.00000
     65      -9.3825      1.00000
     66      -9.3253      1.00000
     67      -9.2920      1.00000
     68      -9.2551      1.00000
     69      -9.2051      1.00000
     70      -9.2041      1.00000
     71      -9.1614      1.00000
     72      -9.1499      1.00000
     73      -7.4961      1.00000
     74      -7.4337      1.00000
     75      -7.2903      1.00000
     76      -7.2782      1.00000
     77      -7.2757      1.00000
     78      -7.2286      1.00000
     79      -7.2194      1.00000
     80      -7.0836      1.00000
     81      -3.6885      1.00000
     82      -3.5893      1.00000
     83      -3.4764      1.00000
     84      -3.4002      1.00000
     85      -3.3947      1.00000
     86      -3.3506      1.00000
     87      -3.3372      1.00000
     88      -3.2414      1.00000
     89      -2.9403      1.00000
     90      -2.8444      1.00000
     91      -2.7538      1.00000
     92      -2.7299      1.00000
     93      -2.5809      1.00000
     94      -2.5782      1.00000
     95      -2.5546      1.00000
     96      -2.5423      1.00000
     97      -2.4665      1.00000
     98      -2.2944      1.00000
     99      -2.2511      1.00000
    100      -2.2398      1.00000
    101      -2.1094      1.00000
    102      -2.0563      1.00000
    103      -1.9729      1.00000
    104      -1.9021      1.00000
    105      -1.0486      1.00000
    106      -0.9491      1.00000
    107      -0.9397      1.00000
    108      -0.9318      1.00000
    109      -0.8733      1.00000
    110      -0.8714      1.00000
    111      -0.8598      1.00000
    112      -0.7676      1.00000
    113      -0.7391      1.00000
    114      -0.7034      1.00000
    115      -0.6831      1.00000
    116      -0.6751      1.00000
    117      -0.5997      1.00000
    118      -0.5182      1.00000
    119      -0.5049      1.00000
    120      -0.4293      1.00000
    121       0.1243      1.00000
    122       0.1374      1.00000
    123       0.1643      1.00000
    124       0.1885      1.00000
    125       0.2963      1.00000
    126       0.3876      1.00000
    127       0.4010      1.00000
    128       0.4347      1.00000
    129       0.7136      1.00000
    130       0.7909      1.00000
    131       0.8146      1.00000
    132       0.9778      1.00000
    133       0.9785      1.00000
    134       1.0137      1.00000
    135       1.1809      1.00000
    136       1.1942      1.00000
    137       1.3123      1.00000
    138       1.3886      1.00000
    139       1.4039      1.00000
    140       1.5113      1.00000
    141       1.5268      1.00000
    142       1.5367      1.00000
    143       1.5598      1.00000
    144       1.5965      1.00000
    145       1.6212      1.00000
    146       1.6563      1.00000
    147       1.7171      1.00000
    148       1.7638      1.00000
    149       1.8191      1.00000
    150       1.8476      1.00000
    151       1.9188      1.00000
    152       1.9296      1.00000
    153       4.0043      0.00000
    154       4.1223      0.00000
    155       4.2607      0.00000
    156       4.4185      0.00000
    157       4.5896      0.00000
    158       4.6430      0.00000
    159       4.6557      0.00000
    160       4.6580      0.00000
    161       4.7294      0.00000
    162       4.7636      0.00000
    163       5.0396      0.00000
    164       5.0451      0.00000
    165       5.0761      0.00000
    166       5.1905      0.00000
    167       5.1969      0.00000
    168       5.4021      0.00000
    169       5.4205      0.00000
    170       5.5319      0.00000
    171       5.7619      0.00000
    172       5.8567      0.00000
    173       5.8689      0.00000
    174       5.9394      0.00000
    175       5.9792      0.00000
    176       6.0135      0.00000
    177       6.1676      0.00000
    178       6.5832      0.00000
    179       6.5836      0.00000
    180       6.9958      0.00000
    181       7.0040      0.00000
    182       7.0737      0.00000
    183       7.1751      0.00000
    184       7.3311      0.00000
    185       7.3525      0.00000
    186       7.3606      0.00000
    187       7.3633      0.00000
    188       7.6564      0.00000
    189       7.7583      0.00000
    190       7.9455      0.00000
    191       8.0673      0.00000
    192       8.0713      0.00000
    193       8.1160      0.00000
    194       8.1314      0.00000
    195       8.2918      0.00000
    196       8.3768      0.00000
    197       8.4408      0.00000
    198       8.4494      0.00000
    199       8.5292      0.00000
    200       8.6007      0.00000
    201       8.6253      0.00000
    202       8.7173      0.00000
    203       8.7364      0.00000
    204       8.8010      0.00000
    205       8.8533      0.00000
    206       8.8743      0.00000
    207       8.9390      0.00000
    208       9.0309      0.00000
    209       9.1490      0.00000
    210       9.1547      0.00000
    211       9.2481      0.00000
    212       9.2825      0.00000
    213       9.2947      0.00000
    214       9.3556      0.00000
    215       9.4272      0.00000
    216       9.4546      0.00000
    217       9.5074      0.00000
    218       9.6542      0.00000
    219       9.7049      0.00000
    220       9.7575      0.00000
    221       9.8599      0.00000
    222       9.9100      0.00000
    223       9.9856      0.00000
    224      10.0577      0.00000
 Fermi energy:         2.2663287052

 spin component 2

 k-point     1 :       0.2500    0.2500    0.2500
  band No.  band energies     occupation 
      1     -21.1115      1.00000
      2     -21.1115      1.00000
      3     -21.1114      1.00000
      4     -21.1114      1.00000
      5     -21.1112      1.00000
      6     -21.1112      1.00000
      7     -21.1112      1.00000
      8     -21.1112      1.00000
      9     -21.1068      1.00000
     10     -21.1068      1.00000
     11     -21.1068      1.00000
     12     -21.1067      1.00000
     13     -21.1065      1.00000
     14     -21.1065      1.00000
     15     -21.1065      1.00000
     16     -21.1063      1.00000
     17     -21.0799      1.00000
     18     -21.0799      1.00000
     19     -21.0799      1.00000
     20     -21.0799      1.00000
     21     -21.0798      1.00000
     22     -21.0798      1.00000
     23     -21.0797      1.00000
     24     -21.0796      1.00000
     25     -20.8614      1.00000
     26     -20.8613      1.00000
     27     -20.8611      1.00000
     28     -20.8609      1.00000
     29     -20.8573      1.00000
     30     -20.8572      1.00000
     31     -20.8571      1.00000
     32     -20.8570      1.00000
     33     -20.8527      1.00000
     34     -20.8527      1.00000
     35     -20.8526      1.00000
     36     -20.8526      1.00000
     37     -20.8522      1.00000
     38     -20.8522      1.00000
     39     -20.8521      1.00000
     40     -20.8521      1.00000
     41     -20.8282      1.00000
     42     -20.8281      1.00000
     43     -20.8281      1.00000
     44     -20.8281      1.00000
     45     -20.8276      1.00000
     46     -20.8276      1.00000
     47     -20.8275      1.00000
     48     -20.8275      1.00000
     49     -13.6969      1.00000
     50     -13.6567      1.00000
     51     -13.6096      1.00000
     52     -13.5822      1.00000
     53     -13.5652      1.00000
     54     -13.5622      1.00000
     55     -13.5582      1.00000
     56     -13.5463      1.00000
     57     -11.6402      1.00000
     58     -11.6237      1.00000
     59     -11.5884      1.00000
     60     -11.5618      1.00000
     61     -11.5386      1.00000
     62     -11.5281      1.00000
     63     -11.5249      1.00000
     64     -11.5205      1.00000
     65      -9.3809      1.00000
     66      -9.3238      1.00000
     67      -9.2906      1.00000
     68      -9.2537      1.00000
     69      -9.2039      1.00000
     70      -9.2029      1.00000
     71      -9.1602      1.00000
     72      -9.1487      1.00000
     73      -7.4943      1.00000
     74      -7.4319      1.00000
     75      -7.2886      1.00000
     76      -7.2766      1.00000
     77      -7.2741      1.00000
     78      -7.2270      1.00000
     79      -7.2179      1.00000
     80      -7.0823      1.00000
     81      -3.6853      1.00000
     82      -3.5862      1.00000
     83      -3.4735      1.00000
     84      -3.3973      1.00000
     85      -3.3920      1.00000
     86      -3.3477      1.00000
     87      -3.3345      1.00000
     88      -3.2388      1.00000
     89      -2.9362      1.00000
     90      -2.8406      1.00000
     91      -2.7498      1.00000
     92      -2.7259      1.00000
     93      -2.5771      1.00000
     94      -2.5745      1.00000
     95      -2.5508      1.00000
     96      -2.5384      1.00000
     97      -2.4621      1.00000
     98      -2.2906      1.00000
     99      -2.2478      1.00000
    100      -2.2364      1.00000
    101      -2.1056      1.00000
    102      -2.0525      1.00000
    103      -1.9692      1.00000
    104      -1.8987      1.00000
    105      -1.0442      1.00000
    106      -0.9448      1.00000
    107      -0.9358      1.00000
    108      -0.9279      1.00000
    109      -0.8695      1.00000
    110      -0.8676      1.00000
    111      -0.8557      1.00000
    112      -0.7638      1.00000
    113      -0.7357      1.00000
    114      -0.6998      1.00000
    115      -0.6795      1.00000
    116      -0.6716      1.00000
    117      -0.5959      1.00000
    118      -0.5147      1.00000
    119      -0.5012      1.00000
    120      -0.4260      1.00000
    121       0.1285      1.00000
    122       0.1413      1.00000
    123       0.1683      1.00000
    124       0.1923      1.00000
    125       0.2999      1.00000
    126       0.3911      1.00000
    127       0.4047      1.00000
    128       0.4382      1.00000
    129       0.7175      1.00000
    130       0.7950      1.00000
    131       0.8188      1.00000
    132       0.9817      1.00000
    133       0.9823      1.00000
    134       1.0176      1.00000
    135       1.1844      1.00000
    136       1.1978      1.00000
    137       1.3162      1.00000
    138       1.3928      1.00000
    139       1.4080      1.00000
    140       1.5152      1.00000
    141       1.5305      1.00000
    142       1.5406      1.00000
    143       1.5635      1.00000
    144       1.6001      1.00000
    145       1.6248      1.00000
    146       1.6600      1.00000
    147       1.7205      1.00000
    148       1.7671      1.00000
    149       1.8223      1.00000
    150       1.8507      1.00000
    151       1.9219      1.00000
    152       1.9326      1.00000
    153       4.0085      0.00000
    154       4.1263      0.00000
    155       4.2647      0.00000
    156       4.4225      0.00000
    157       4.5950      0.00000
    158       4.6483      0.00000
    159       4.6599      0.00000
    160       4.6635      0.00000
    161       4.7337      0.00000
    162       4.7683      0.00000
    163       5.0454      0.00000
    164       5.0504      0.00000
    165       5.0813      0.00000
    166       5.1950      0.00000
    167       5.2015      0.00000
    168       5.4065      0.00000
    169       5.4255      0.00000
    170       5.5373      0.00000
    171       5.7681      0.00000
    172       5.8609      0.00000
    173       5.8729      0.00000
    174       5.9443      0.00000
    175       5.9837      0.00000
    176       6.0176      0.00000
    177       6.1757      0.00000
    178       6.5921      0.00000
    179       6.5926      0.00000
    180       7.0056      0.00000
    181       7.0142      0.00000
    182       7.0840      0.00000
    183       7.1850      0.00000
    184       7.3412      0.00000
    185       7.3627      0.00000
    186       7.3709      0.00000
    187       7.3739      0.00000
    188       7.6665      0.00000
    189       7.7691      0.00000
    190       7.9558      0.00000
    191       8.0781      0.00000
    192       8.0826      0.00000
    193       8.1263      0.00000
    194       8.1425      0.00000
    195       8.3030      0.00000
    196       8.3878      0.00000
    197       8.4510      0.00000
    198       8.4591      0.00000
    199       8.5394      0.00000
    200       8.6107      0.00000
    201       8.6359      0.00000
    202       8.7276      0.00000
    203       8.7460      0.00000
    204       8.8116      0.00000
    205       8.8637      0.00000
    206       8.8833      0.00000
    207       8.9488      0.00000
    208       9.0414      0.00000
    209       9.1589      0.00000
    210       9.1637      0.00000
    211       9.2591      0.00000
    212       9.2906      0.00000
    213       9.3074      0.00000
    214       9.3584      0.00000
    215       9.4444      0.00000
    216       9.4758      0.00000
    217       9.5183      0.00000
    218       9.6596      0.00000
    219       9.7178      0.00000
    220       9.7483      0.00000
    221       9.8563      0.00000
    222       9.8786      0.00000
    223      10.0003      0.00000
    224      10.0771      0.00000


--------------------------------------------------------------------------------------------------------


 soft charge-density along one line, spin component           1
         0         1         2         3         4         5         6         7         8         9
 total charge-density along one line

 soft charge-density along one line, spin component           2
         0         1         2         3         4         5         6         7         8         9
 total charge-density along one line

 pseudopotential strength for first ion, spin component:           1
-25.043  -0.000  -0.005   2.413   0.000   0.002   0.000   0.000
 -0.000 -25.052   0.000   0.000   2.417  -0.000  -0.003  -0.009
 -0.005   0.000 -25.040   0.002  -0.000   2.412  -0.000  -0.000
  2.413   0.000   0.002   6.624   0.000  -0.000  -0.000   0.000
  0.000   2.417  -0.000   0.000   6.623   0.000   0.000  -0.000
  0.002  -0.000   2.412  -0.000   0.000   6.624   0.000  -0.000
  0.000  -0.003  -0.000  -0.000   0.000   0.000   1.433   7.002
  0.000  -0.009  -0.000   0.000  -0.000  -0.000   7.002  33.992
 pseudopotential strength for first ion, spin component:           2
-25.044  -0.000  -0.005   2.414   0.000   0.002   0.000   0.000
 -0.000 -25.053   0.000   0.000   2.418  -0.000  -0.003  -0.009
 -0.005   0.000 -25.041   0.002  -0.000   2.413  -0.000  -0.000
  2.414   0.000   0.002   6.624   0.000  -0.000  -0.000   0.000
  0.000   2.418  -0.000   0.000   6.623   0.000   0.000  -0.000
  0.002  -0.000   2.413  -0.000   0.000   6.624   0.000  -0.000
  0.000  -0.003  -0.000  -0.000   0.000   0.000   1.433   7.002
  0.000  -0.009  -0.000   0.000  -0.000  -0.000   7.002  33.992
 total augmentation occupancy for first ion, spin component:           1
  2.001   0.000   0.000  -0.002  -0.000   0.001  -0.000   0.000
  0.000   2.001   0.000  -0.000  -0.001  -0.000   0.007  -0.003
  0.000   0.000   2.001   0.001  -0.000  -0.003   0.000   0.000
 -0.002  -0.000   0.001   0.019   0.000  -0.001  -0.000   0.000
 -0.000  -0.001  -0.000   0.000   0.014   0.000   0.008   0.000
  0.001  -0.000  -0.003  -0.001   0.000   0.018   0.000   0.000
  0.000   0.007   0.000  -0.000   0.008   0.000   0.444  -0.001
  0.000  -0.003   0.000   0.000   0.000   0.000  -0.001   0.000
 total augmentation occupancy for first ion, spin component:           2
  0.000   0.000  -0.000   0.000   0.000  -0.000   0.000  -0.000
  0.000   0.000   0.000   0.000   0.000   0.000   0.000  -0.000
 -0.000   0.000   0.000  -0.000   0.000   0.000   0.000  -0.000
  0.000   0.000  -0.000   0.000   0.000  -0.000  -0.000   0.000
  0.000   0.000   0.000   0.000   0.000   0.000   0.000  -0.000
 -0.000   0.000   0.000  -0.000   0.000   0.000   0.000  -0.000
  0.000   0.000   0.000  -0.000   0.000   0.000   0.000   0.000
 -0.000  -0.000  -0.000   0.000  -0.000  -0.000   0.000  -0.000


------------------------ aborting loop because EDIFF is reached ----------------------------------------


    CHARGE:  cpu time      0.9120: real time      0.9123
    FORLOC:  cpu time      0.0218: real time      0.0218
    FORNL :  cpu time      0.6131: real time      0.6132
    STRESS:  cpu time      1.8139: real time      1.8156
    FORCOR:  cpu time      0.2708: real time      0.2708
    FORHAR:  cpu time      0.0450: real time      0.0451
    MIXING:  cpu time      0.0038: real time      0.0038
    OFIELD:  cpu time      0.0001: real time      0.0001

  FORCE on cell =-STRESS in cart. coord.  units (eV):
  Direction    XX          YY          ZZ          XY          YZ          ZX
  --------------------------------------------------------------------------------------
  Alpha Z   409.06785   409.06785   409.06785
  Ewald   -4310.62403 -4310.62403 -4717.60271    -0.00000     0.00000    -0.00000
  Hartree  1728.10814  1728.10814  1623.93861    -0.00000    -0.00000    -0.00000
  E(xc)   -1282.95521 -1282.95521 -1285.89037     0.00000    -0.00000    -0.00000
  Local   -1959.64577 -1959.64577 -1542.43369     0.00000     0.00000    -0.00000
  n-local  1962.15149  1962.15102  1979.91034     0.00785     0.01140     0.01167
  augment   114.70843   114.70843   103.43894    -0.00000    -0.00000    -0.00000
  Kinetic  3339.83336  3339.83322  3431.77252     0.12337     0.04660     0.04711
  Fock        0.00000     0.00000     0.00000     0.00000     0.00000     0.00000
  -------------------------------------------------------------------------------------
  Total       0.64394     0.64394     2.20149     0.00000     0.00000     0.00000
  in kB       0.92431     0.92431     3.16003     0.00000     0.00000     0.00000
  external pressure =        1.67 kB  Pullay stress =        0.00 kB


 VOLUME and BASIS-vectors are now :
 -----------------------------------------------------------------------------
  energy-cutoff  :      520.00
  volume of cell :     1116.19
      direct lattice vectors                 reciprocal lattice vectors
     9.697189049  0.000000000  0.000000000     0.103122667 -0.000000000  0.000000000
     0.000000000  9.697189049  0.000000000     0.000000000  0.103122667  0.000000000
     0.000000000  0.000000000 11.869837417    -0.000000000 -0.000000000  0.084247152

[...]
    174       5.9479      0.00000
    175       5.9874      0.00000
    176       6.0216      0.00000
    177       6.1774      0.00000
    178       6.5933      0.00000
    179       6.5943      0.00000
    180       7.0061      0.00000
    181       7.0156      0.00000
    182       7.0846      0.00000
    183       7.1860      0.00000
    184       7.3408      0.00000
    185       7.3626      0.00000
    186       7.3703      0.00000
    187       7.3746      0.00000
    188       7.6675      0.00000
    189       7.7699      0.00000
    190       7.9555      0.00000
    191       8.0779      0.00000
    192       8.0822      0.00000
    193       8.1257      0.00000
    194       8.1429      0.00000
    195       8.3025      0.00000
    196       8.3880      0.00000
    197       8.4511      0.00000
    198       8.4586      0.00000
    199       8.5395      0.00000
    200       8.6105      0.00000
    201       8.6356      0.00000
    202       8.7273      0.00000
    203       8.7455      0.00000
    204       8.8110      0.00000
    205       8.8634      0.00000
    206       8.8828      0.00000
    207       8.9483      0.00000
    208       9.0412      0.00000
    209       9.1575      0.00000
    210       9.1619      0.00000
    211       9.2535      0.00000
    212       9.2885      0.00000
    213       9.3051      0.00000
    214       9.3515      0.00000
    215       9.4271      0.00000
    216       9.4542      0.00000
    217       9.5024      0.00000
    218       9.6369      0.00000
    219       9.6999      0.00000
    220       9.7023      0.00000
    221       9.8053      0.00000
    222       9.8547      0.00000
    223       9.9226      0.00000
    224       9.9510      0.00000


--------------------------------------------------------------------------------------------------------


 soft charge-density along one line, spin component           1
         0         1         2         3         4         5         6         7         8         9
 total charge-density along one line

 soft charge-density along one line, spin component           2
         0         1         2         3         4         5         6         7         8         9
 total charge-density along one line

 pseudopotential strength for first ion, spin component:           1
-25.046  -0.000  -0.005   2.415   0.000   0.002   0.000   0.000
 -0.000 -25.055   0.000   0.000   2.418  -0.000  -0.003  -0.008
 -0.005   0.000 -25.043   0.002  -0.000   2.413  -0.000  -0.000
  2.415   0.000   0.002   6.623   0.000  -0.000  -0.000   0.000
  0.000   2.418  -0.000   0.000   6.623   0.000   0.000  -0.000
  0.002  -0.000   2.413  -0.000   0.000   6.624   0.000  -0.000
  0.000  -0.003  -0.000  -0.000   0.000   0.000   1.433   7.003
  0.000  -0.008  -0.000   0.000  -0.000  -0.000   7.003  33.994
 pseudopotential strength for first ion, spin component:           2
-25.046  -0.000  -0.005   2.415   0.000   0.002   0.000   0.000
 -0.000 -25.055   0.000   0.000   2.418  -0.000  -0.003  -0.008
 -0.005   0.000 -25.043   0.002  -0.000   2.413  -0.000  -0.000
  2.415   0.000   0.002   6.623   0.000  -0.000  -0.000   0.000
  0.000   2.418  -0.000   0.000   6.623   0.000   0.000  -0.000
  0.002  -0.000   2.413  -0.000   0.000   6.624   0.000  -0.000
  0.000  -0.003  -0.000  -0.000   0.000   0.000   1.433   7.003
  0.000  -0.008  -0.000   0.000  -0.000  -0.000   7.003  33.994
 total augmentation occupancy for first ion, spin component:           1
  2.001   0.000   0.000  -0.002  -0.000   0.001  -0.000  -0.000
  0.000   2.001   0.000  -0.000  -0.001  -0.000   0.008  -0.003
  0.000   0.000   2.001   0.001  -0.000  -0.003  -0.000  -0.000
 -0.002  -0.000   0.001   0.019   0.000  -0.001  -0.000   0.000
 -0.000  -0.001  -0.000   0.000   0.014   0.000   0.008   0.000
  0.001  -0.000  -0.003  -0.001   0.000   0.018  -0.000   0.000
 -0.000   0.008  -0.000  -0.000   0.008  -0.000   0.445  -0.001
 -0.000  -0.003  -0.000   0.000   0.000   0.000  -0.001   0.000
 total augmentation occupancy for first ion, spin component:           2
  0.000   0.000   0.000   0.000   0.000  -0.000   0.000   0.000
  0.000   0.000   0.000   0.000  -0.000   0.000  -0.000   0.000
  0.000   0.000   0.000  -0.000   0.000   0.000  -0.000   0.000
  0.000   0.000  -0.000  -0.000  -0.000   0.000  -0.000   0.000
  0.000  -0.000   0.000  -0.000   0.000   0.000   0.000  -0.000
 -0.000   0.000   0.000   0.000   0.000   0.000  -0.000   0.000
  0.000  -0.000  -0.000  -0.000   0.000  -0.000   0.000   0.000
  0.000   0.000   0.000   0.000  -0.000   0.000   0.000  -0.000


------------------------ aborting loop because EDIFF is reached ----------------------------------------


    CHARGE:  cpu time      0.8575: real time      0.8796
    FORLOC:  cpu time      0.0212: real time      0.0213
    FORNL :  cpu time      0.5990: real time      0.5994
    STRESS:  cpu time      1.7758: real time      1.8011
    FORCOR:  cpu time      0.2652: real time      0.2653
    FORHAR:  cpu time      0.0518: real time      0.0519
    MIXING:  cpu time      0.0034: real time      0.0034
    OFIELD:  cpu time      0.0000: real time      0.0000

  FORCE on cell =-STRESS in cart. coord.  units (eV):
  Direction    XX          YY          ZZ          XY          YZ          ZX
  --------------------------------------------------------------------------------------
  Alpha Z   409.06785   409.06785   409.06785
  Ewald   -4310.62403 -4310.62403 -4717.60271    -0.00000     0.00000    -0.00000
  Hartree  1728.00986  1728.00986  1623.86806    -0.00000    -0.00000    -0.00000
  E(xc)   -1283.05212 -1283.05212 -1285.99104     0.00000    -0.00000    -0.00000
  Local   -1959.32822 -1959.32822 -1542.20200     0.00000    -0.00000    -0.00000
  n-local  1961.84994  1961.84994  1979.57314     0.00681     0.01067     0.01090
  augment   114.75406   114.75406   103.47450    -0.00000    -0.00000     0.00000
  Kinetic  3339.56380  3339.56380  3431.45686     0.12350     0.04661     0.04661
  Fock        0.00000     0.00000     0.00000     0.00000     0.00000     0.00000
  -------------------------------------------------------------------------------------
  Total       0.24114     0.24114     1.64467     0.00000     0.00000     0.00000
  in kB       0.34614     0.34614     2.36076     0.00000     0.00000     0.00000
  external pressure =        1.02 kB  Pullay stress =        0.00 kB


 VOLUME and BASIS-vectors are now :
 -----------------------------------------------------------------------------
  energy-cutoff  :      520.00
  volume of cell :     1116.19
      direct lattice vectors                 reciprocal lattice vectors
     9.697189049  0.000000000  0.000000000     0.103122667 -0.000000000  0.000000000
     0.000000000  9.697189049  0.000000000     0.000000000  0.103122667  0.000000000
     0.000000000  0.000000000 11.869837417    -0.000000000 -0.000000000  0.084247152

  length of vectors
     9.697189049  9.697189049 11.869837417     0.103122667  0.103122667  0.084247152


 FORCES acting on ions
    electron-ion (+dipol)            ewald-force                    non-local-force                 convergence-correction
 -----------------------------------------------------------------------------------------------
   0.178E-12 -.452E-13 -.167E+02   -.178E-13 0.711E-14 0.173E+02   0.112E-19 0.113E-19 -.569E+00   0.476E-13 0.798E-13 -.108E-12
   0.720E-13 0.962E-13 0.167E+02   0.338E-13 -.977E-14 -.173E+02   -.475E-19 -.277E-20 0.569E+00   0.107E-13 0.517E-13 0.133E-12
   0.128E-12 0.496E-12 0.167E+02   -.888E-14 0.187E-13 -.173E+02   0.648E-20 0.159E-19 0.569E+00   0.128E-13 -.126E-13 0.142E-12
   0.561E-13 0.679E-12 -.167E+02   0.391E-13 0.462E-13 0.173E+02   -.536E-19 -.107E-19 -.569E+00   0.793E-14 0.559E-13 -.153E-12
   -.720E-07 0.183E+02 0.294E-05   0.346E-13 -.169E+02 0.600E-13   -.215E-15 -.139E+01 -.859E-16   0.219E-14 -.188E-12 -.546E-13
   -.183E+02 -.720E-07 -.294E-05   0.169E+02 -.888E-15 -.249E-13   0.139E+01 0.786E-20 0.859E-16   0.264E-12 -.366E-13 0.338E-13
   0.183E+02 -.720E-07 0.294E-05   -.169E+02 0.355E-14 0.142E-13   -.139E+01 0.193E-20 -.859E-16   -.159E-12 0.319E-13 -.716E-13
   -.720E-07 -.183E+02 -.294E-05   -.426E-13 0.169E+02 -.933E-14   0.215E-15 0.139E+01 0.858E-16   0.295E-13 0.221E-12 0.793E-14
   0.166E-12 -.317E-13 -.167E+02   -.271E-13 -.333E-14 0.173E+02   -.121E-20 0.364E-19 -.569E+00   0.515E-13 0.660E-13 -.163E-12
   0.208E-11 0.129E-11 0.167E+02   0.391E-13 0.142E-13 -.173E+02   -.189E-19 -.143E-20 0.569E+00   -.111E-13 0.594E-13 0.234E-12
   0.997E-12 -.758E-13 0.167E+02   0.107E-13 0.107E-13 -.173E+02   0.458E-20 0.401E-19 0.569E+00   0.703E-14 -.157E-13 0.159E-12
   0.849E-12 -.114E-12 -.167E+02   0.533E-13 0.413E-13 0.173E+02   -.198E-19 -.940E-20 -.569E+00   0.299E-14 0.663E-13 -.603E-13
   -.720E-07 0.183E+02 0.294E-05   0.711E-14 -.169E+02 0.400E-14   -.215E-15 -.139E+01 -.859E-16   -.135E-13 -.178E-12 -.338E-13
   -.183E+02 -.720E-07 -.294E-05   0.169E+02 0.426E-13 -.355E-13   0.139E+01 -.188E-20 0.859E-16   0.227E-12 -.913E-14 -.105E-12
   0.183E+02 -.720E-07 0.294E-05   -.169E+02 -.249E-13 0.213E-13   -.139E+01 0.356E-20 -.859E-16   -.164E-12 0.421E-13 0.285E-13
   -.720E-07 -.183E+02 -.294E-05   -.204E-13 0.169E+02 0.160E-13   0.215E-15 0.139E+01 0.858E-16   -.137E-14 0.230E-12 -.468E-13
   0.440E+02 -.291E+02 -.347E+02   -.470E+02 0.323E+02 0.382E+02   0.299E+01 -.320E+01 -.344E+01   0.138E-12 0.255E-12 -.162E-12
   0.291E+02 0.440E+02 0.347E+02   -.323E+02 -.470E+02 -.382E+02   0.320E+01 0.299E+01 0.344E+01   -.260E-12 0.145E-12 0.888E-13
   -.291E+02 -.440E+02 0.347E+02   0.323E+02 0.470E+02 -.382E+02   -.320E+01 -.299E+01 0.344E+01   0.236E-12 -.142E-12 0.971E-13
   0.440E+02 0.291E+02 0.347E+02   -.470E+02 -.323E+02 -.382E+02   0.299E+01 0.320E+01 0.344E+01   0.142E-12 -.253E-12 0.333E-13
   -.440E+02 -.291E+02 0.347E+02   0.470E+02 0.323E+02 -.382E+02   -.299E+01 -.320E+01 0.344E+01   -.133E-12 0.214E-12 0.683E-13
   -.440E+02 0.291E+02 -.347E+02   0.470E+02 -.323E+02 0.382E+02   -.299E+01 0.320E+01 -.344E+01   -.155E-12 -.202E-12 -.110E-12
   -.291E+02 0.440E+02 -.347E+02   0.323E+02 -.470E+02 0.382E+02   -.320E+01 0.299E+01 -.344E+01   0.229E-12 0.142E-12 -.712E-13
   0.291E+02 -.440E+02 -.347E+02   -.323E+02 0.470E+02 0.382E+02   0.320E+01 -.299E+01 -.344E+01   -.245E-12 -.142E-12 -.891E-13
   -.359E+02 -.357E+02 0.492E+02   0.429E+02 0.383E+02 -.567E+02   -.705E+01 -.268E+01 0.748E+01   0.276E-12 0.620E-12 -.154E-12
   0.357E+02 -.359E+02 -.492E+02   -.383E+02 0.429E+02 0.567E+02   0.268E+01 -.705E+01 -.748E+01   -.604E-12 0.324E-12 0.142E-12
   -.357E+02 0.359E+02 -.492E+02   0.383E+02 -.429E+02 0.567E+02   -.268E+01 0.705E+01 -.748E+01   0.679E-12 -.271E-12 0.101E-12
   -.359E+02 0.357E+02 -.492E+02   0.429E+02 -.383E+02 0.567E+02   -.705E+01 0.268E+01 -.748E+01   0.283E-12 -.572E-12 0.522E-13
   0.359E+02 -.357E+02 -.492E+02   -.429E+02 0.383E+02 0.567E+02   0.705E+01 -.268E+01 -.748E+01   -.301E-12 0.585E-12 0.502E-13
   0.359E+02 0.357E+02 0.492E+02   -.429E+02 -.383E+02 -.567E+02   0.705E+01 0.268E+01 0.748E+01   -.308E-12 -.636E-12 -.804E-13
   -.357E+02 -.359E+02 0.492E+02   0.383E+02 0.429E+02 -.567E+02   -.268E+01 -.705E+01 0.748E+01   0.571E-12 0.288E-12 -.831E-13
   0.357E+02 0.359E+02 0.492E+02   -.383E+02 -.429E+02 -.567E+02   0.268E+01 0.705E+01 0.748E+01   -.619E-12 -.322E-12 -.149E-12
   0.440E+02 -.291E+02 -.347E+02   -.470E+02 0.323E+02 0.382E+02   0.299E+01 -.320E+01 -.344E+01   0.145E-12 0.246E-12 -.841E-13
   0.291E+02 0.440E+02 0.347E+02   -.323E+02 -.470E+02 -.382E+02   0.320E+01 0.299E+01 0.344E+01   -.243E-12 0.166E-12 0.474E-13
   -.291E+02 -.440E+02 0.347E+02   0.323E+02 0.470E+02 -.382E+02   -.320E+01 -.299E+01 0.344E+01   0.218E-12 -.170E-12 0.183E-12
   0.440E+02 0.291E+02 0.347E+02   -.470E+02 -.323E+02 -.382E+02   0.299E+01 0.320E+01 0.344E+01   0.121E-12 -.254E-12 0.103E-12
   -.440E+02 -.291E+02 0.347E+02   0.470E+02 0.323E+02 -.382E+02   -.299E+01 -.320E+01 0.344E+01   -.107E-12 0.221E-12 0.132E-12
   -.440E+02 0.291E+02 -.347E+02   0.470E+02 -.323E+02 0.382E+02   -.299E+01 0.320E+01 -.344E+01   -.141E-12 -.229E-12 -.174E-12
   -.291E+02 0.440E+02 -.347E+02   0.323E+02 -.470E+02 0.382E+02   -.320E+01 0.299E+01 -.344E+01   0.223E-12 0.134E-12 -.989E-13
   0.291E+02 -.440E+02 -.347E+02   -.323E+02 0.470E+02 0.382E+02   0.320E+01 -.299E+01 -.344E+01   -.253E-12 -.109E-12 -.105E-12
   -.359E+02 -.357E+02 0.492E+02   0.429E+02 0.383E+02 -.567E+02   -.705E+01 -.268E+01 0.748E+01   0.282E-12 0.648E-12 -.685E-13
   0.357E+02 -.359E+02 -.492E+02   -.383E+02 0.429E+02 0.567E+02   0.268E+01 -.705E+01 -.748E+01   -.602E-12 0.290E-12 0.125E-12
   -.357E+02 0.359E+02 -.492E+02   0.383E+02 -.429E+02 0.567E+02   -.268E+01 0.705E+01 -.748E+01   0.662E-12 -.298E-12 0.112E-12
   -.359E+02 0.357E+02 -.492E+02   0.429E+02 -.383E+02 0.567E+02   -.705E+01 0.268E+01 -.748E+01   0.288E-12 -.534E-12 0.172E-12
   0.359E+02 -.357E+02 -.492E+02   -.429E+02 0.383E+02 0.567E+02   0.705E+01 -.268E+01 -.748E+01   -.292E-12 0.535E-12 0.146E-12
   0.359E+02 0.357E+02 0.492E+02   -.429E+02 -.383E+02 -.567E+02   0.705E+01 0.268E+01 0.748E+01   -.305E-12 -.610E-12 -.150E-12
   -.357E+02 -.359E+02 0.492E+02   0.383E+02 0.429E+02 -.567E+02   -.268E+01 -.705E+01 0.748E+01   0.599E-12 0.275E-12 -.673E-13
   0.357E+02 0.359E+02 0.492E+02   -.383E+02 -.429E+02 -.567E+02   0.268E+01 0.705E+01 0.748E+01   -.555E-12 -.319E-12 -.101E-12
 -----------------------------------------------------------------------------------------------
   -.118E-05 -.118E-05 0.324E-07   -.853E-13 -.227E-12 -.426E-13   -.577E-14 -.355E-14 -.533E-14   0.285E-12 0.489E-12 -.153E-12


 POSITION                                       TOTAL-FORCE (eV/Angst)
 -----------------------------------------------------------------------------------
      0.00000      0.00000      9.83065        -0.000000      0.000000      0.011751
      0.00000      0.00000      2.03919        -0.000000      0.000000     -0.011751
      0.00000      4.84859      5.00665        -0.000000      0.000000     -0.011751
      0.00000      4.84859      0.92827        -0.000000      0.000000      0.011751
      2.42430      2.20550      4.45119         0.000000      0.008840      0.000000
      7.49169      2.42430      7.41865        -0.008840      0.000000     -0.000000
      7.05409      2.42430      1.48373         0.008840      0.000000      0.000000
      2.42430      2.64310     10.38611        -0.000000     -0.008840     -0.000000
      4.84859      4.84859      3.89573        -0.000000      0.000000      0.011751
      4.84859      4.84859      7.97410        -0.000000      0.000000     -0.011751
      4.84859      0.00000     10.94156        -0.000000      0.000000     -0.011751
      4.84859      0.00000      6.86319        -0.000000      0.000000      0.011751
      7.27289      7.05409     10.38611         0.000000      0.008840      0.000000
      2.64310      7.27289      1.48373        -0.008840      0.000000     -0.000000
      2.20550      7.27289      7.41865         0.008840      0.000000      0.000000
      7.27289      7.49169      4.45119        -0.000000     -0.008840     -0.000000
      2.40928      4.53122      2.41972        -0.002815     -0.016078      0.005971
      5.16597      2.40928      9.45011         0.016078     -0.002815     -0.005971
      9.37982      2.43931      3.51519        -0.016078      0.002815     -0.005971
      2.40928      0.31737      0.54773        -0.002815      0.016078     -0.005971
      7.28791      9.37982      0.54773         0.002815     -0.016078     -0.005971
      2.43931      0.31737      8.35464         0.002815      0.016078      0.005971
      4.53122      7.25787      5.38718        -0.016078     -0.002815      0.005971
      5.16597      2.43931      5.38718         0.016078      0.002815      0.005971
      3.71389      3.42463      1.21892        -0.022164     -0.016496     -0.008584
      1.42397      8.56249      4.71600         0.016496     -0.022164      0.008584
      3.42463      5.98329     10.65092        -0.016496      0.022164      0.008584
      3.71389      1.42397      1.74854        -0.022164      0.016496      0.008584
      5.98329      8.27322      1.74854         0.022164     -0.016496      0.008584
      1.13470      1.42397      7.15384         0.022164      0.016496     -0.008584
      3.42463      8.56249      4.18638        -0.016496     -0.022164     -0.008584
      6.27256      1.13470      4.18638         0.016496      0.022164     -0.008584
      7.25787      9.37982      8.35464        -0.002815     -0.016078      0.005971
      0.31737      7.25787      3.51519         0.016078     -0.002815     -0.005971
      4.53122      7.28791      9.45011        -0.016078      0.002815     -0.005971
      7.25787      5.16597      6.48265        -0.002815      0.016078     -0.005971
      2.43931      4.53122      6.48265         0.002815     -0.016078     -0.005971
      7.28791      5.16597      2.41972         0.002815      0.016078      0.005971
      9.37982      2.40928     11.32210        -0.016078     -0.002815      0.005971
      0.31737      7.28791     11.32210         0.016078      0.002815      0.005971
      8.56249      8.27322      7.15384        -0.022164     -0.016496     -0.008584
      6.27256      3.71389     10.65092         0.016496     -0.022164      0.008584
      8.27322      1.13470      4.71600        -0.016496      0.022164      0.008584
      8.56249      6.27256      7.68346        -0.022164      0.016496      0.008584
      1.13470      3.42463      7.68346         0.022164     -0.016496      0.008584
      5.98329      6.27256      1.21892         0.022164      0.016496     -0.008584
      8.27322      3.71389     10.12129        -0.016496     -0.022164     -0.008584
      1.42397      5.98329     10.12129         0.016496      0.022164     -0.008584
 -----------------------------------------------------------------------------------
    total drift:                               -0.000001     -0.000001      0.000000


--------------------------------------------------------------------------------------------------------



  FREE ENERGIE OF THE ION-ELECTRON SYSTEM (eV)
  ---------------------------------------------------
  free  energy   TOTEN  =      -181.42859532 eV

  energy  without entropy=     -181.42859532  energy(sigma->0) =     -181.42859532

 d Force = 0.0000000E+00[ 0.000E+00, 0.000E+00]  d Energy =-0.1091394E-10 0.109E-10
 d Force = 0.0000000E+00[ 0.000E+00, 0.000E+00]  d Ewald  = 0.0000000E+00 0.000E+00


--------------------------------------------------------------------------------------------------------


    POTLOK:  cpu time      1.1254: real time      1.1478


--------------------------------------------------------------------------------------------------------


     LOOP+:  cpu time     11.0244: real time     11.1990
    4ORBIT:  cpu time      0.0000: real time      0.0000

 total amount of memory used by VASP MPI-rank0   108213. kBytes
=======================================================================

   base      :      30000. kBytes
   nonlr-proj:      16935. kBytes
   fftplans  :       6225. kBytes
   grid      :      47950. kBytes
   one-center:        294. kBytes
   wavefun   :       6809. kBytes

  
  
 General timing and accounting informations for this job:
 ========================================================
  
                  Total CPU time used (sec):     1700.192
                            User time (sec):     1695.771
                          System time (sec):        4.421
                         Elapsed time (sec):     1714.021
  
                   Maximum memory used (kb):      467320.
                   Average memory used (kb):          N/A
  
                          Minor page faults:       698833
                          Major page faults:          149
                 Voluntary context switches:         3027
