  20  20   0   0
  0.2311266E+02  0.6761583E-09  0.8752464E-09  0.7812176E-09  0.5000000E-15
   1.0000000000000000E-004
  CAR 
 unknown system                          
     10.59029270    -23.18258184  301      1.48568860      1.00000000
    -23.183  0.0000E+00  0.0000E+00
    -23.070  0.0000E+00  0.0000E+00
    -22.957  0.0000E+00  0.0000E+00
    -22.845  0.0000E+00  0.0000E+00
    -22.732  0.0000E+00  0.0000E+00
    -22.620  0.0000E+00  0.0000E+00
    -22.507  0.0000E+00  0.0000E+00
    -22.395  0.0000E+00  0.0000E+00
    -22.282  0.0000E+00  0.0000E+00
    -22.169  0.0000E+00  0.0000E+00
    -22.057  0.0000E+00  0.0000E+00
    -21.944  0.0000E+00  0.0000E+00
    -21.832  0.4637E-07  0.5221E-08
    -21.719  0.1326E-01  0.1492E-02
    -21.607  0.8172E+00  0.9349E-01
    -21.494  0.2354E+00  0.1200E+00
    -21.381  0.1396E-03  0.1200E+00
    -21.269  0.2144E+00  0.1441E+00
    -21.156  0.1836E+01  0.3509E+00
    -21.044  0.2070E+01  0.5839E+00
    -20.931  0.1429E+00  0.6000E+00
    -20.818  0.1109E-04  0.6000E+00
    -20.706  0.9431E-13  0.6000E+00
    -20.593  0.0000E+00  0.6000E+00
    -20.481  0.0000E+00  0.6000E+00
    -20.368  0.0000E+00  0.6000E+00
    -20.256  0.0000E+00  0.6000E+00
    -20.143  0.0000E+00  0.6000E+00
    -20.030  0.0000E+00  0.6000E+00
    -19.918  0.0000E+00  0.6000E+00
    -19.805  0.0000E+00  0.6000E+00
    -19.693  0.0000E+00  0.6000E+00
    -19.580  0.0000E+00  0.6000E+00
    -19.468  0.0000E+00  0.6000E+00
    -19.355  0.0000E+00  0.6000E+00
    -19.242  0.0000E+00  0.6000E+00
    -19.130  0.0000E+00  0.6000E+00
    -19.017  0.0000E+00  0.6000E+00
    -18.905  0.0000E+00  0.6000E+00
    -18.792  0.0000E+00  0.6000E+00
    -18.680  0.0000E+00  0.6000E+00
    -18.567  0.0000E+00  0.6000E+00
    -18.454  0.0000E+00  0.6000E+00
    -18.342  0.0000E+00  0.6000E+00
    -18.229  0.0000E+00  0.6000E+00
    -18.117  0.0000E+00  0.6000E+00
    -18.004  0.0000E+00  0.6000E+00
    -17.891  0.0000E+00  0.6000E+00
    -17.779  0.0000E+00  0.6000E+00
    -17.666  0.0000E+00  0.6000E+00
    -17.554  0.0000E+00  0.6000E+00
    -17.441  0.0000E+00  0.6000E+00
    -17.329  0.0000E+00  0.6000E+00
    -17.216  0.0000E+00  0.6000E+00
    -17.103  0.0000E+00  0.6000E+00
    -16.991  0.0000E+00  0.6000E+00
    -16.878  0.0000E+00  0.6000E+00
    -16.766  0.0000E+00  0.6000E+00
    -16.653  0.0000E+00  0.6000E+00
    -16.541  0.0000E+00  0.6000E+00
    -16.428  0.0000E+00  0.6000E+00
    -16.315  0.0000E+00  0.6000E+00
    -16.203  0.0000E+00  0.6000E+00
    -16.090  0.0000E+00  0.6000E+00
    -15.978  0.0000E+00  0.6000E+00
    -15.865  0.0000E+00  0.6000E+00
    -15.753  0.0000E+00  0.6000E+00
    -15.640  0.0000E+00  0.6000E+00
    -15.527  0.0000E+00  0.6000E+00
    -15.415  0.0000E+00  0.6000E+00
    -15.302  0.0000E+00  0.6000E+00
    -15.190  0.0000E+00  0.6000E+00
    -15.077  0.0000E+00  0.6000E+00
    -14.965  0.0000E+00  0.6000E+00
    -14.852  0.0000E+00  0.6000E+00
    -14.739  0.0000E+00  0.6000E+00
    -14.627  0.0000E+00  0.6000E+00
    -14.514  0.0000E+00  0.6000E+00
    -14.402  0.0000E+00  0.6000E+00
    -14.289  0.0000E+00  0.6000E+00
    -14.176  0.0000E+00  0.6000E+00
    -14.064  0.0000E+00  0.6000E+00
    -13.951  0.0000E+00  0.6000E+00
    -13.839  0.0000E+00  0.6000E+00
    -13.726  0.0000E+00  0.6000E+00
    -13.614  0.0000E+00  0.6000E+00
    -13.501  0.0000E+00  0.6000E+00
    -13.388  0.0000E+00  0.6000E+00
    -13.276  0.0000E+00  0.6000E+00
    -13.163  0.0000E+00  0.6000E+00
    -13.051  0.0000E+00  0.6000E+00
    -12.938  0.0000E+00  0.6000E+00
    -12.826  0.0000E+00  0.6000E+00
    -12.713  0.0000E+00  0.6000E+00
    -12.600  0.0000E+00  0.6000E+00
    -12.488  0.1181E-11  0.6000E+00
    -12.375  0.6309E-04  0.6000E+00
    -12.263  0.2639E+00  0.6297E+00
    -12.150  0.7954E+00  0.7193E+00
    -12.038  0.3235E+00  0.7557E+00
    -11.925  0.3929E+00  0.7999E+00
    -11.812  0.9035E-03  0.8000E+00
    -11.700  0.2321E-09  0.8000E+00
    -11.587  0.0000E+00  0.8000E+00
    -11.475  0.0000E+00  0.8000E+00
    -11.362  0.0000E+00  0.8000E+00
    -11.249  0.0000E+00  0.8000E+00
    -11.137  0.0000E+00  0.8000E+00
    -11.024  0.0000E+00  0.8000E+00
    -10.912  0.0000E+00  0.8000E+00
    -10.799  0.0000E+00  0.8000E+00
    -10.687  0.0000E+00  0.8000E+00
    -10.574  0.0000E+00  0.8000E+00
    -10.461  0.0000E+00  0.8000E+00
    -10.349  0.0000E+00  0.8000E+00
    -10.236  0.4939E-15  0.8000E+00
    -10.124  0.1209E-06  0.8000E+00
    -10.011  0.1928E-02  0.8002E+00
     -9.899  0.2547E-01  0.8031E+00
     -9.786  0.1648E+00  0.8216E+00
     -9.673  0.1593E+00  0.8396E+00
     -9.561  0.3854E-02  0.8400E+00
     -9.448  0.7099E-07  0.8400E+00
     -9.336  0.4128E-04  0.8400E+00
     -9.223  0.6373E-01  0.8472E+00
     -9.111  0.5157E+00  0.9052E+00
     -8.998  0.4722E+00  0.9584E+00
     -8.885  0.1426E-01  0.9600E+00
     -8.773  0.9934E-06  0.9600E+00
     -8.660  0.9704E-14  0.9600E+00
     -8.548  0.0000E+00  0.9600E+00
     -8.435  0.0000E+00  0.9600E+00
     -8.323  0.0000E+00  0.9600E+00
     -8.210  0.0000E+00  0.9600E+00
     -8.097  0.0000E+00  0.9600E+00
     -7.985  0.0000E+00  0.9600E+00
     -7.872  0.0000E+00  0.9600E+00
     -7.760  0.0000E+00  0.9600E+00
     -7.647  0.0000E+00  0.9600E+00
     -7.534  0.0000E+00  0.9600E+00
     -7.422  0.0000E+00  0.9600E+00
     -7.309  0.0000E+00  0.9600E+00
     -7.197  0.0000E+00  0.9600E+00
     -7.084  0.0000E+00  0.9600E+00
     -6.972  0.0000E+00  0.9600E+00
     -6.859  0.0000E+00  0.9600E+00
     -6.746  0.0000E+00  0.9600E+00
     -6.634  0.0000E+00  0.9600E+00
     -6.521  0.0000E+00  0.9600E+00
     -6.409  0.0000E+00  0.9600E+00
     -6.296  0.0000E+00  0.9600E+00
     -6.184  0.0000E+00  0.9600E+00
     -6.071  0.0000E+00  0.9600E+00
     -5.958  0.0000E+00  0.9600E+00
     -5.846  0.0000E+00  0.9600E+00
     -5.733  0.0000E+00  0.9600E+00
     -5.621  0.0000E+00  0.9600E+00
     -5.508  0.0000E+00  0.9600E+00
     -5.396  0.0000E+00  0.9600E+00
     -5.283  0.0000E+00  0.9600E+00
     -5.170  0.0000E+00  0.9600E+00
     -5.058  0.0000E+00  0.9600E+00
     -4.945  0.0000E+00  0.9600E+00
     -4.833  0.0000E+00  0.9600E+00
     -4.720  0.0000E+00  0.9600E+00
     -4.608  0.0000E+00  0.9600E+00
     -4.495  0.0000E+00  0.9600E+00
     -4.382  0.0000E+00  0.9600E+00
     -4.270  0.0000E+00  0.9600E+00
     -4.157  0.0000E+00  0.9600E+00
     -4.045  0.0000E+00  0.9600E+00
     -3.932  0.0000E+00  0.9600E+00
     -3.819  0.0000E+00  0.9600E+00
     -3.707  0.0000E+00  0.9600E+00
     -3.594  0.0000E+00  0.9600E+00
     -3.482  0.0000E+00  0.9600E+00
     -3.369  0.4263E-11  0.9600E+00
     -3.257  0.2722E-04  0.9600E+00
     -3.144  0.2098E-01  0.9624E+00
     -3.031  0.1427E+00  0.9784E+00
     -2.919  0.1613E+00  0.9966E+00
     -2.806  0.3001E-01  0.1000E+01
     -2.694  0.2784E-03  0.1000E+01
     -2.581  0.1007E-08  0.1000E+01
     -2.469  0.0000E+00  0.1000E+01
     -2.356  0.0000E+00  0.1000E+01
     -2.243  0.0000E+00  0.1000E+01
     -2.131  0.0000E+00  0.1000E+01
     -2.018  0.0000E+00  0.1000E+01
     -1.906  0.0000E+00  0.1000E+01
     -1.793  0.0000E+00  0.1000E+01
     -1.681  0.0000E+00  0.1000E+01
     -1.568  0.4931E-16  0.1000E+01
     -1.455  0.3395E-07  0.1000E+01
     -1.343  0.1665E-02  0.1000E+01
     -1.230  0.2635E-01  0.1003E+01
     -1.118  0.6457E-01  0.1010E+01
     -1.005  0.1363E+00  0.1026E+01
     -0.892  0.1738E+00  0.1045E+01
     -0.780  0.1525E+00  0.1063E+01
     -0.667  0.1298E+00  0.1077E+01
     -0.555  0.2198E+00  0.1102E+01
     -0.442  0.1431E+00  0.1118E+01
     -0.330  0.5404E-01  0.1124E+01
     -0.217  0.1752E+00  0.1144E+01
     -0.104  0.1356E+00  0.1159E+01
      0.008  0.1762E+00  0.1179E+01
      0.121  0.1640E+00  0.1197E+01
      0.233  0.1838E+00  0.1218E+01
      0.346  0.1463E+00  0.1235E+01
      0.458  0.1263E+00  0.1249E+01
      0.571  0.3192E+00  0.1285E+01
      0.684  0.3720E+00  0.1327E+01
      0.796  0.3092E+00  0.1361E+01
      0.909  0.3236E+00  0.1398E+01
      1.021  0.3112E+00  0.1433E+01
      1.134  0.4856E-01  0.1438E+01
      1.246  0.1012E-01  0.1439E+01
      1.359  0.5290E-02  0.1440E+01
      1.472  0.2859E-05  0.1440E+01
      1.584  0.1227E-12  0.1440E+01
      1.697  0.0000E+00  0.1440E+01
      1.809  0.0000E+00  0.1440E+01
      1.922  0.0000E+00  0.1440E+01
      2.034  0.0000E+00  0.1440E+01
      2.147  0.0000E+00  0.1440E+01
      2.260  0.0000E+00  0.1440E+01
      2.372  0.0000E+00  0.1440E+01
      2.485  0.0000E+00  0.1440E+01
      2.597  0.0000E+00  0.1440E+01
      2.710  0.0000E+00  0.1440E+01
      2.823  0.0000E+00  0.1440E+01
      2.935  0.0000E+00  0.1440E+01
      3.048  0.5229E-09  0.1440E+01
      3.160  0.2030E-03  0.1440E+01
      3.273  0.1218E-01  0.1441E+01
      3.385  0.2426E-02  0.1442E+01
      3.498  0.2326E-06  0.1442E+01
      3.611  0.1501E-14  0.1442E+01
      3.723  0.4148E-10  0.1442E+01
      3.836  0.8593E-04  0.1442E+01
      3.948  0.1960E-01  0.1444E+01
      4.061  0.1677E-01  0.1446E+01
      4.173  0.3464E-01  0.1450E+01
      4.286  0.9811E-02  0.1451E+01
      4.399  0.6123E-01  0.1458E+01
      4.511  0.4017E-01  0.1462E+01
      4.624  0.7064E-01  0.1470E+01
      4.736  0.8271E-01  0.1479E+01
      4.849  0.4849E-02  0.1480E+01
      4.961  0.1987E-05  0.1480E+01
      5.074  0.7612E-02  0.1481E+01
      5.187  0.2479E-01  0.1484E+01
      5.299  0.2808E-01  0.1487E+01
      5.412  0.9509E-01  0.1498E+01
      5.524  0.1098E+00  0.1510E+01
      5.637  0.6983E-01  0.1518E+01
      5.750  0.4073E-01  0.1522E+01
      5.862  0.3545E-01  0.1526E+01
      5.975  0.6289E-01  0.1533E+01
      6.087  0.1517E+00  0.1550E+01
      6.200  0.1238E+00  0.1564E+01
      6.312  0.8006E-01  0.1573E+01
      6.425  0.1021E+00  0.1585E+01
      6.538  0.7338E-01  0.1593E+01
      6.650  0.1503E+00  0.1610E+01
      6.763  0.9861E-01  0.1621E+01
      6.875  0.4929E-01  0.1627E+01
      6.988  0.6671E-01  0.1634E+01
      7.100  0.1078E+00  0.1646E+01
      7.213  0.8261E-01  0.1656E+01
      7.326  0.1923E+00  0.1677E+01
      7.438  0.1369E+00  0.1693E+01
      7.551  0.5639E-01  0.1699E+01
      7.663  0.2048E+00  0.1722E+01
      7.776  0.1577E+00  0.1740E+01
      7.888  0.1815E+00  0.1760E+01
      8.001  0.6601E-01  0.1768E+01
      8.114  0.2082E+00  0.1791E+01
      8.226  0.1290E+00  0.1806E+01
      8.339  0.1860E+00  0.1827E+01
      8.451  0.1066E+00  0.1839E+01
      8.564  0.1221E+00  0.1852E+01
      8.676  0.2125E+00  0.1876E+01
      8.789  0.1405E+00  0.1892E+01
      8.902  0.1499E+00  0.1909E+01
      9.014  0.6759E-01  0.1917E+01
      9.127  0.2942E-01  0.1920E+01
      9.239  0.4251E-03  0.1920E+01
      9.352  0.1531E-08  0.1920E+01
      9.465  0.0000E+00  0.1920E+01
      9.577  0.0000E+00  0.1920E+01
      9.690  0.0000E+00  0.1920E+01
      9.802  0.0000E+00  0.1920E+01
      9.915  0.0000E+00  0.1920E+01
     10.027  0.0000E+00  0.1920E+01
     10.140  0.0000E+00  0.1920E+01
     10.253  0.0000E+00  0.1920E+01
     10.365  0.0000E+00  0.1920E+01
     10.478  0.0000E+00  0.1920E+01
     10.590  0.0000E+00  0.1920E+01
