       N       E                     dE             d eps       ncg     rms          rms(c)
DAV:   1     0.122960779457E+04    0.12296E+04   -0.63267E+04  1536   0.138E+03
DAV:   2     0.404419051149E+02   -0.11892E+04   -0.11643E+04  1664   0.384E+02
DAV:   3    -0.733716607271E+02   -0.11381E+03   -0.11325E+03  1984   0.130E+02
DAV:   4    -0.764895268001E+02   -0.31179E+01   -0.31149E+01  1824   0.246E+01
DAV:   5    -0.766088529396E+02   -0.11933E+00   -0.11932E+00  2208   0.425E+00    0.135E+01
DAV:   6    -0.718758508465E+02    0.47330E+01   -0.86253E+00  2240   0.209E+01    0.102E+01
DAV:   7    -0.716172220491E+02    0.25863E+00   -0.29402E+00  2432   0.517E+00    0.544E+00
DAV:   8    -0.716467955804E+02   -0.29574E-01   -0.21854E-01  2144   0.243E+00    0.133E+00
DAV:   9    -0.716516384721E+02   -0.48429E-02   -0.53098E-02  2496   0.115E+00    0.559E-01
DAV:  10    -0.716535201216E+02   -0.18816E-02   -0.43083E-03  1888   0.203E-01    0.289E-01
DAV:  11    -0.716572969746E+02   -0.37769E-02   -0.52498E-03  1952   0.198E-01    0.897E-02
DAV:  12    -0.716572936066E+02    0.33680E-05   -0.12156E-04  1920   0.446E-02    0.809E-02
DAV:  13    -0.716573536435E+02   -0.60037E-04   -0.83158E-05  1696   0.268E-02    0.176E-02
DAV:  14    -0.716573653051E+02   -0.11662E-04   -0.17610E-05  1728   0.142E-02    0.141E-02
DAV:  15    -0.716573723013E+02   -0.69963E-05   -0.79302E-06  1760   0.860E-03
   1 F= -.71657372E+02 E0= -.71657372E+02  d E =-.716574E+02
       N       E                     dE             d eps       ncg     rms          rms(c)
DAV:   1    -0.721239801548E+02   -0.46661E+00   -0.11896E+01  1824   0.262E+01    0.449E+00
DAV:   2    -0.717806342496E+02    0.34335E+00   -0.67080E-01  1888   0.555E+00    0.192E+00
DAV:   3    -0.717032206883E+02    0.77414E-01   -0.20793E-01  1824   0.314E+00    0.746E-01
DAV:   4    -0.716987379833E+02    0.44827E-02   -0.13041E-02  2016   0.425E-01    0.327E-01
DAV:   5    -0.716970410224E+02    0.16970E-02   -0.80373E-04  2432   0.212E-01    0.147E-01
DAV:   6    -0.716970004488E+02    0.40574E-04   -0.12496E-04  2016   0.501E-02    0.735E-02
DAV:   7    -0.716969955272E+02    0.49216E-05   -0.15592E-05  1952   0.225E-02
   2 F= -.71696996E+02 E0= -.71696996E+02  d E =-.396232E-01
       N       E                     dE             d eps       ncg     rms          rms(c)
DAV:   1    -0.717000914637E+02   -0.30910E-02   -0.82071E-02  1888   0.211E+00    0.379E-01
DAV:   2    -0.716976759961E+02    0.24155E-02   -0.47784E-03  1952   0.480E-01    0.159E-01
DAV:   3    -0.716971393375E+02    0.53666E-03   -0.14170E-03  2016   0.259E-01    0.644E-02
DAV:   4    -0.716970909537E+02    0.48384E-04   -0.92300E-05  1952   0.347E-02    0.251E-02
DAV:   5    -0.716970745052E+02    0.16449E-04   -0.44470E-06  1440   0.175E-02    0.718E-03
DAV:   6    -0.716970732514E+02    0.12538E-05   -0.18880E-06  1344   0.717E-03
   3 F= -.71697073E+02 E0= -.71697073E+02  d E =-.397010E-01
       N       E                     dE             d eps       ncg     rms          rms(c)
DAV:   1    -0.716972979536E+02   -0.22345E-03   -0.54225E-03  1920   0.543E-01    0.996E-02
DAV:   2    -0.716971311032E+02    0.16685E-03   -0.31711E-04  1920   0.124E-01    0.418E-02
DAV:   3    -0.716970972267E+02    0.33877E-04   -0.93960E-05  1920   0.668E-02    0.157E-02
DAV:   4    -0.716970989932E+02   -0.17665E-05   -0.51965E-06  1056   0.886E-03
   4 F= -.71697099E+02 E0= -.71697099E+02  d E =-.397267E-01
       N       E                     dE             d eps       ncg     rms          rms(c)
DAV:   1    -0.716971196727E+02   -0.22446E-04   -0.45753E-04  1888   0.156E-01    0.287E-02
DAV:   2    -0.716971038693E+02    0.15803E-04   -0.27028E-05  1696   0.352E-02    0.120E-02
DAV:   3    -0.716971011217E+02    0.27476E-05   -0.73455E-06   992   0.189E-02
   5 F= -.71697101E+02 E0= -.71697101E+02  d E =-.397288E-01
       N       E                     dE             d eps       ncg     rms          rms(c)
DAV:   1    -0.717012468622E+02   -0.41430E-02   -0.19599E-01  2176   0.215E+00    0.355E-01
DAV:   2    -0.716995975157E+02    0.16493E-02   -0.93414E-03  2304   0.514E-01    0.165E-01
DAV:   3    -0.716991259685E+02    0.47155E-03   -0.91222E-04  1888   0.188E-01    0.725E-02
DAV:   4    -0.716990504592E+02    0.75509E-04   -0.12941E-04  2528   0.556E-02    0.417E-02
DAV:   5    -0.716990281114E+02    0.22348E-04   -0.67184E-06  1280   0.133E-02    0.458E-03
DAV:   6    -0.716990271075E+02    0.10039E-05   -0.28359E-06  1152   0.869E-03
   6 F= -.71699027E+02 E0= -.71699027E+02  d E =-.192599E-02
       N       E                     dE             d eps       ncg     rms          rms(c)
DAV:   1    -0.717125275247E+02   -0.13499E-01   -0.10322E+00  2176   0.494E+00    0.813E-01
DAV:   2    -0.717038020117E+02    0.87255E-02   -0.48963E-02  2304   0.118E+00    0.378E-01
DAV:   3    -0.717013215779E+02    0.24804E-02   -0.47848E-03  2048   0.429E-01    0.170E-01
DAV:   4    -0.717009423681E+02    0.37921E-03   -0.63292E-04  2528   0.128E-01    0.937E-02
DAV:   5    -0.717008520662E+02    0.90302E-04   -0.44602E-05  2240   0.314E-02    0.146E-02
DAV:   6    -0.717008481236E+02    0.39426E-05   -0.59918E-06  1600   0.106E-02
   7 F= -.71700848E+02 E0= -.71700848E+02  d E =-.374700E-02
