 vasp.6.3.2 27Jun22 (build Jun 14 2024 17:29:11) complex                         
 executed on             LinuxGNU date 2026.03.29  19:58:14
 running on   32 total cores
 distrk:  each k-point on   32 cores,    1 groups
 distr:  one band on NCORE=   1 cores,   32 groups


--------------------------------------------------------------------------------------------------------


 INCAR:
   EDIFF = 1e-05
   EDIFFG = -0.05
   ENCUT = 400.0
   IBRION = 2
   ISIF = 3
   ISMEAR = 0
   LCHARG = False
   LREAL = Auto
   LWAVE = False
   NSW = 100
   SIGMA = 0.05

 POTCAR:    PAW_PBE Na_pv 19Sep2006               
 POTCAR:    PAW_PBE In_d 06Sep2000                
 POTCAR:    PAW_PBE S 06Sep2000                   
 -----------------------------------------------------------------------------
|                                                                             |
|           W    W    AA    RRRRR   N    N  II  N    N   GGGG   !!!           |
|           W    W   A  A   R    R  NN   N  II  NN   N  G    G  !!!           |
|           W    W  A    A  R    R  N N  N  II  N N  N  G       !!!           |
|           W WW W  AAAAAA  RRRRR   N  N N  II  N  N N  G  GGG   !            |
|           WW  WW  A    A  R   R   N   NN  II  N   NN  G    G                |
|           W    W  A    A  R    R  N    N  II  N    N   GGGG   !!!           |
|                                                                             |
|     For optimal performance we recommend to set                             |
|       NCORE = 2 up to number-of-cores-per-socket                            |
|     NCORE specifies how many cores store one orbital (NPAR=cpu/NCORE).      |
|     This setting can greatly improve the performance of VASP for DFT.       |
|     The default, NCORE=1 might be grossly inefficient on modern             |
|     multi-core architectures or massively parallel machines. Do your        |
|     own testing! More info at https://www.vasp.at/wiki/index.php/NCORE      |
|     Unfortunately you need to use the default for GW and RPA                |
|     calculations (for HF NCORE is supported but not extensively tested      |
|     yet).                                                                   |
|                                                                             |
 -----------------------------------------------------------------------------

 POTCAR:    PAW_PBE Na_pv 19Sep2006               
   SHA256 =  6a2f546d9e11350984debacf3dc457d8cffc0868e817d445faca461816a32b94 Na_pv/POTCAR          
   COPYR  = (c) Copyright 19Sep2006 Georg Kresse                                                    
   COPYR  = This file is part of the software VASP. Any use, copying, and all other rights are regul
   COPYR  = If you do not have a valid VASP license, you may not use, copy or distribute this file. 
   VRHFIN =Na: p6s1                                                                                 
   LEXCH  = PE                                                                                      
   EATOM  =   766.0439 eV,   56.3026 Ry                                                             
                                                                                                    
   TITEL  = PAW_PBE Na_pv 19Sep2006                                                                 
   LULTRA =        F    use ultrasoft PP ?                                                          
   IUNSCR =        1    unscreen: 0-lin 1-nonlin 2-no                                               
   RPACOR =    1.800    partial core radius                                                         
   POMASS =   22.990; ZVAL   =    7.000    mass and valenz                                          
   RCORE  =    2.200    outmost cutoff radius                                                       
   RWIGS  =    2.200; RWIGS  =    1.164    wigner-seitz radius (au A)                               
   ENMAX  =  259.561; ENMIN  =  194.671 eV                                                          
   ICORE  =        2    local potential                                                             
   LCOR   =        T    correct aug charges                                                         
   LPAW   =        T    paw PP                                                                      
   EAUG   =  368.056                                                                                
   DEXC   =    0.000                                                                                
   RMAX   =    2.245    core radius for proj-oper                                                   
   RAUG   =    1.300    factor for augmentation sphere                                              
   RDEP   =    2.259    radius for radial grids                                                     
   RDEPT  =    1.738    core radius for aug-charge                                                  
                                                                                                    
   Atomic configuration                                                                             
    5 entries                                                                                       
     n  l   j            E        occ.                                                              
     1  0  0.50     -1033.6933   2.0000                                                             
     2  0  0.50       -56.7526   2.0000                                                             
     2  1  1.50       -28.6721   6.0000                                                             
     3  0  0.50        -2.7440   1.0000                                                             
     3  2  1.50        -1.3606   0.0000                                                             
   Description                                                                                      
     l       E           TYP  RCUT    TYP  RCUT                                                     
     1    -28.6720912     23  2.000                                                                 
     1      6.8029130     23  2.000                                                                 
     0     -2.7439560     23  2.200                                                                 
     0     34.0145650     23  2.200                                                                 
     2     -1.3605826     23  2.200                                                                 
  local pseudopotential read in
  partial core-charges read in
  partial kinetic energy density read in
  atomic valenz-charges read in
  non local Contribution for L=           1  read in
    real space projection operators read in
  non local Contribution for L=           1  read in
    real space projection operators read in
  non local Contribution for L=           0  read in
    real space projection operators read in
  non local Contribution for L=           0  read in
    real space projection operators read in
    PAW grid and wavefunctions read in

   number of l-projection  operators is LMAX  =           4
   number of lm-projection operators is LMMAX =           8

 POTCAR:    PAW_PBE In_d 06Sep2000                
   SHA256 =  bef4eefb233e1f458c7ef2e09e39e7114bb5a6a38c7ac356915527764429c513 In_d/POTCAR           
   COPYR  = (c) Copyright 06Sep2000 Georg Kresse                                                    
   COPYR  = This file is part of the software VASP. Any use, copying, and all other rights are regul
   COPYR  = If you do not have a valid VASP license, you may not use, copy or distribute this file. 
   VRHFIN =In: s2p1                                                                                 
   LEXCH  = PE                                                                                      
   EATOM  =  1576.8302 eV,  115.8937 Ry                                                             
                                                                                                    
   TITEL  = PAW_PBE In_d 06Sep2000                                                                  
   LULTRA =        F    use ultrasoft PP ?                                                          
   IUNSCR =        1    unscreen: 0-lin 1-nonlin 2-no                                               
   RPACOR =    2.200    partial core radius                                                         
   POMASS =  114.820; ZVAL   =   13.000    mass and valenz                                          
   RCORE  =    2.500    outmost cutoff radius                                                       
   RWIGS  =    3.170; RWIGS  =    1.677    wigner-seitz radius (au A)                               
   ENMAX  =  239.211; ENMIN  =  179.409 eV                                                          
   ICORE  =        3    local potential                                                             
   LCOR   =        T    correct aug charges                                                         
   LPAW   =        T    paw PP                                                                      
   EAUG   =  449.704                                                                                
   DEXC   =    0.000                                                                                
   RMAX   =    2.552    core radius for proj-oper                                                   
   RAUG   =    1.300    factor for augmentation sphere                                              
   RDEP   =    2.630    radius for radial grids                                                     
   RDEPT  =    2.033    core radius for aug-charge                                                  
                                                                                                    
   Atomic configuration                                                                             
   12 entries                                                                                       
     n  l   j            E        occ.                                                              
     1  0  0.50    -27747.9169   2.0000                                                             
     2  0  0.50     -4154.4438   2.0000                                                             
     2  1  1.50     -3728.4305   6.0000                                                             
     3  0  0.50      -788.3680   2.0000                                                             
     3  1  1.50      -648.9215   6.0000                                                             
     3  2  2.50      -432.5893  10.0000                                                             
     4  0  0.50      -119.6363   2.0000                                                             
     4  1  1.50       -78.1086   6.0000                                                             
     4  2  2.50       -18.6227  10.0000                                                             
     5  0  0.50        -8.2107   2.0000                                                             
     5  1  0.50        -2.5185   1.0000                                                             
     4  3  2.50        -2.7212   0.0000                                                             
   Description                                                                                      
     l       E           TYP  RCUT    TYP  RCUT                                                     
     2    -18.6226981     23  2.500                                                                 
     2     -1.3605826     23  2.500                                                                 
     0     -8.2107305     23  2.500                                                                 
     0     -6.1485975     23  2.500                                                                 
     1     -2.5184867     23  2.500                                                                 
     1      3.2427302     23  2.500                                                                 
     3     -1.3605826      7  2.500                                                                 
  local pseudopotential read in
  partial core-charges read in
  partial kinetic energy density read in
  atomic valenz-charges read in
  non local Contribution for L=           2  read in
    real space projection operators read in
  non local Contribution for L=           2  read in
    real space projection operators read in
  non local Contribution for L=           0  read in
    real space projection operators read in
  non local Contribution for L=           0  read in
    real space projection operators read in
  non local Contribution for L=           1  read in
    real space projection operators read in
  non local Contribution for L=           1  read in
    real space projection operators read in
    PAW grid and wavefunctions read in

   number of l-projection  operators is LMAX  =           6
   number of lm-projection operators is LMMAX =          18

 POTCAR:    PAW_PBE S 06Sep2000                   
   SHA256 =  0fc7481fb0695f01bdc6462160264c5c84044ae9ec85a907d398b887a2bc3132 S/POTCAR              
   COPYR  = (c) Copyright 06Sep2000 Georg Kresse                                                    
   COPYR  = This file is part of the software VASP. Any use, copying, and all other rights are regul
   COPYR  = If you do not have a valid VASP license, you may not use, copy or distribute this file. 
   VRHFIN =S : s2p4                                                                                 
   LEXCH  = PE                                                                                      
   EATOM  =   276.8230 eV,   20.3459 Ry                                                             
                                                                                                    
   TITEL  = PAW_PBE S 06Sep2000                                                                     
   LULTRA =        F    use ultrasoft PP ?                                                          
   IUNSCR =        1    unscreen: 0-lin 1-nonlin 2-no                                               
   RPACOR =    1.500    partial core radius                                                         
   POMASS =   32.066; ZVAL   =    6.000    mass and valenz                                          
   RCORE  =    1.900    outmost cutoff radius                                                       
   RWIGS  =    2.200; RWIGS  =    1.164    wigner-seitz radius (au A)                               
   ENMAX  =  258.689; ENMIN  =  194.016 eV                                                          
   ICORE  =        2    local potential                                                             
   LCOR   =        T    correct aug charges                                                         
   LPAW   =        T    paw PP                                                                      
   EAUG   =  335.092                                                                                
   DEXC   =    0.000                                                                                
   RMAX   =    1.942    core radius for proj-oper                                                   
   RAUG   =    1.300    factor for augmentation sphere                                              
   RDEP   =    1.954    radius for radial grids                                                     
   RDEPT  =    1.744    core radius for aug-charge                                                  
                                                                                                    
   Atomic configuration                                                                             
    6 entries                                                                                       
     n  l   j            E        occ.                                                              
     1  0  0.50     -2405.8406   2.0000                                                             
     2  0  0.50      -211.7007   2.0000                                                             
     2  1  1.50      -156.4958   6.0000                                                             
     3  0  0.50       -17.2562   2.0000                                                             
     3  1  0.50        -7.0085   4.0000                                                             
     3  2  1.50        -6.8029   0.0000                                                             
   Description                                                                                      
     l       E           TYP  RCUT    TYP  RCUT                                                     
     0    -17.2561641     23  1.900                                                                 
     0    -15.8743224     23  1.900                                                                 
     1     -7.0085400     23  1.900                                                                 
     1     -2.7779785     23  1.900                                                                 
     2     -6.8029130     23  1.900                                                                 
  local pseudopotential read in
  partial core-charges read in
  partial kinetic energy density read in
  atomic valenz-charges read in
  non local Contribution for L=           0  read in
    real space projection operators read in
  non local Contribution for L=           0  read in
    real space projection operators read in
  non local Contribution for L=           1  read in
    real space projection operators read in
  non local Contribution for L=           1  read in
    real space projection operators read in
    PAW grid and wavefunctions read in

   number of l-projection  operators is LMAX  =           4
   number of lm-projection operators is LMMAX =           8

 Optimization of the real space projectors (new method)

 maximal supplied QI-value         = 17.01
 optimisation between [QCUT,QGAM] = [ 10.20, 20.41] = [ 29.16,116.64] Ry 
 Optimized for a Real-space Cutoff    1.30 Angstroem

   l    n(q)    QCUT    max X(q) W(low)/X(q) W(high)/X(q)  e(spline) 
   1      7    10.205     4.940    0.23E-03    0.84E-03    0.11E-06
   1      7    10.205     6.253    0.40E-03    0.13E-02    0.18E-06
   0      8    10.205    37.438    0.23E-03    0.37E-03    0.42E-07
   0      8    10.205     9.606    0.16E-03    0.26E-03    0.31E-07
 Optimization of the real space projectors (new method)

 maximal supplied QI-value         = 15.12
 optimisation between [QCUT,QGAM] = [ 10.13, 20.41] = [ 28.73,116.64] Ry 
 Optimized for a Real-space Cutoff    1.38 Angstroem

   l    n(q)    QCUT    max X(q) W(low)/X(q) W(high)/X(q)  e(spline) 
   2      7    10.129     4.551    0.64E-04    0.18E-03    0.26E-07
   2      7    10.129     8.525    0.32E-03    0.27E-04    0.88E-07
   0      8    10.129   208.283    0.16E-03    0.21E-03    0.10E-06
   0      8    10.129   161.407    0.16E-03    0.21E-03    0.10E-06
   1      8    10.129   122.126    0.27E-03    0.20E-03    0.14E-06
   1      8    10.129    62.412    0.26E-03    0.19E-03    0.13E-06
 Optimization of the real space projectors (new method)

 maximal supplied QI-value         = 19.84
 optimisation between [QCUT,QGAM] = [ 10.12, 20.44] = [ 28.68,116.96] Ry 
 Optimized for a Real-space Cutoff    1.23 Angstroem

   l    n(q)    QCUT    max X(q) W(low)/X(q) W(high)/X(q)  e(spline) 
   0      7    10.119   187.594    0.62E-04    0.28E-03    0.52E-07
   0      7    10.119   164.243    0.61E-04    0.28E-03    0.52E-07
   1      7    10.119    67.533    0.45E-03    0.63E-03    0.13E-06
   1      7    10.119    50.729    0.44E-03    0.62E-03    0.12E-06
  PAW_PBE Na_pv 19Sep2006               :
 energy of atom  1       EATOM= -766.0439
 kinetic energy error for atom=    0.0103 (will be added to EATOM!!)
  PAW_PBE In_d 06Sep2000                :
 energy of atom  2       EATOM=-1576.8302
 kinetic energy error for atom=    0.0052 (will be added to EATOM!!)
  PAW_PBE S 06Sep2000                   :
 energy of atom  3       EATOM= -276.8230
 kinetic energy error for atom=    0.0046 (will be added to EATOM!!)


 POSCAR: Na10 In2 S8
  positions in direct lattice
  No initial velocities read in
 exchange correlation table for  LEXCH =        8
   RHO(1)=    0.500       N(1)  =     2000
   RHO(2)=  100.500       N(2)  =     4000



--------------------------------------------------------------------------------------------------------


 ion  position               nearest neighbor table
   1  0.656  0.520  0.665-  13 2.70  19 2.70  16 2.75  12 3.35
   2  0.344  0.020  0.335-  14 2.70  20 2.70  15 2.75  11 3.35
   3  0.344  0.480  0.335-  14 2.70  20 2.70  18 2.75  11 3.35
   4  0.656  0.980  0.665-  13 2.70  19 2.70  17 2.75  12 3.35
   5  0.975  0.250  0.529-
   6  0.025  0.750  0.471-
   7  0.669  0.250  0.161-  19 2.69  17 2.76  16 2.76  12 3.33
   8  0.331  0.750  0.839-  20 2.69  18 2.76  15 2.76  11 3.33
   9  0.000  0.000  0.000-
  10  0.000  0.500  0.000-
  11  0.639  0.750  0.176-  13 2.47  20 2.49  17 2.50  16 2.50   8 3.33   3 3.35   2 3.35
  12  0.361  0.250  0.824-  14 2.47  19 2.49  18 2.50  15 2.50   7 3.33   1 3.35   4 3.35
  13  0.760  0.750  0.879-  11 2.47   4 2.70   1 2.70
  14  0.240  0.250  0.121-  12 2.47   2 2.70   3 2.70
  15  0.233  0.018  0.672-  12 2.50   2 2.75   8 2.76
  16  0.767  0.518  0.328-  11 2.50   1 2.75   7 2.76
  17  0.767  0.982  0.328-  11 2.50   4 2.75   7 2.76
  18  0.233  0.482  0.672-  12 2.50   3 2.75   8 2.76
  19  0.729  0.250  0.822-  12 2.49   7 2.69   1 2.70   4 2.70
  20  0.271  0.750  0.178-  11 2.49   8 2.69   2 2.70   3 2.70

  LATTYP: Found a simple monoclinic cell.
 ALAT       =     6.7615826300
 B/A-ratio  =     1.2944400681
 C/A-ratio  =     1.1553768751
 COS(beta)  =    -0.0180451792
  
  Lattice vectors:
  
 A1 = (   6.7604816584,   0.0000000000,  -0.1220139704)
 A2 = (  -0.0000000000,   8.7524634800,   0.0000000000)
 A3 = (   0.0000000000,   0.0000000000,   7.8121762100)


Analysis of symmetry for initial positions (statically):
=====================================================================
 Subroutine PRICEL returns:
 Original cell was already a primitive cell.
 

 Routine SETGRP: Setting up the symmetry group for a 
 simple monoclinic supercell.


 Subroutine GETGRP returns: Found  4 space group operations
 (whereof  2 operations were pure point group operations)
 out of a pool of  4 trial point group operations.


The static configuration has the point symmetry S_2 .
 The point group associated with its full space group is C_2h.


Analysis of symmetry for dynamics (positions and initial velocities):
=====================================================================
 Subroutine PRICEL returns:
 Original cell was already a primitive cell.
 

 Routine SETGRP: Setting up the symmetry group for a 
 simple monoclinic supercell.


 Subroutine GETGRP returns: Found  4 space group operations
 (whereof  2 operations were pure point group operations)
 out of a pool of  4 trial point group operations.


The dynamic configuration has the point symmetry S_2 .
 The point group associated with its full space group is C_2h.


 Subroutine INISYM returns: Found  4 space group operations
 (whereof  2 operations are pure point group operations),
 and found     1 'primitive' translations


----------------------------------------------------------------------------------------

                                     Primitive cell                                     

  volume of cell :     462.2533

  direct lattice vectors                    reciprocal lattice vectors
     6.760481658  0.000000000 -0.122013970     0.147918455  0.000000000 -0.000000000
    -0.000000000  8.752463480  0.000000000    -0.000000000  0.114253547  0.000000000
     0.000000000  0.000000000  7.812176210     0.002310255 -0.000000000  0.128005305

  length of vectors
     6.761582630  8.752463480  7.812176210     0.147918455  0.114253547  0.128026151

  position of ions in fractional coordinates (direct lattice)
     0.656423100  0.520440640  0.665181170
     0.343576900  0.020440640  0.334818830
     0.343576900  0.479559360  0.334818830
     0.656423100  0.979559360  0.665181170
     0.974712760  0.250000000  0.528594020
     0.025287240  0.750000000  0.471405980
     0.669014910  0.250000000  0.160917150
     0.330985090  0.750000000  0.839082850
     0.000000000  0.000000000  0.000000000
     0.000000000  0.500000000  0.000000000
     0.639264070  0.750000000  0.176107510
     0.360735930  0.250000000  0.823892490
     0.759832420  0.750000000  0.879051400
     0.240167580  0.250000000  0.120948600
     0.233326480  0.018403350  0.671660900
     0.766673520  0.518403350  0.328339100
     0.766673520  0.981596650  0.328339100
     0.233326480  0.481596650  0.671660900
     0.728756460  0.250000000  0.821507460
     0.271243540  0.750000000  0.178492540

  ion indices of the primitive-cell ions
   primitive index   ion index
                 1           1
                 2           2
                 3           3
                 4           4
                 5           5
                 6           6
                 7           7
                 8           8
                 9           9
                10          10
                11          11
                12          12
                13          13
                14          14
                15          15
                16          16
                17          17
                18          18
                19          19
                20          20

----------------------------------------------------------------------------------------



 KPOINTS: pymatgen with grid density = 500 / numbe

Automatic generation of k-mesh.
 Grid dimensions read from file:
 generate k-points for:    3    2    2

 Generating k-lattice:

  Cartesian coordinates                     Fractional coordinates (reciprocal lattice)
     0.049306152  0.000000000 -0.000000000     0.333333333  0.000000000  0.000000000
    -0.000000000  0.057126774  0.000000000     0.000000000  0.500000000  0.000000000
     0.001155127 -0.000000000  0.064002653     0.000000000  0.000000000  0.500000000

  Length of vectors
     0.049306152  0.057126774  0.064013076

  Shift w.r.t. Gamma in fractional coordinates (k-lattice)
     0.000000000  0.000000000  0.000000000

 
 Subroutine IBZKPT returns following result:
 ===========================================
 
 Found      8 irreducible k-points:
 
 Following reciprocal coordinates:
            Coordinates               Weight
  0.000000  0.000000  0.000000      1.000000
  0.333333  0.000000  0.000000      2.000000
  0.000000  0.500000  0.000000      1.000000
  0.333333  0.500000  0.000000      2.000000
  0.000000  0.000000  0.500000      1.000000
  0.333333  0.000000  0.500000      2.000000
  0.000000  0.500000  0.500000      1.000000
  0.333333  0.500000  0.500000      2.000000
 
 Following cartesian coordinates:
            Coordinates               Weight
  0.000000  0.000000  0.000000      1.000000
  0.049306  0.000000  0.000000      2.000000
  0.000000  0.057127  0.000000      1.000000
  0.049306  0.057127  0.000000      2.000000
  0.001155  0.000000  0.064003      1.000000
  0.050461  0.000000  0.064003      2.000000
  0.001155  0.057127  0.064003      1.000000
  0.050461  0.057127  0.064003      2.000000
 


--------------------------------------------------------------------------------------------------------




 Dimension of arrays:
   k-points           NKPTS =      8   k-points in BZ     NKDIM =      8   number of bands    NBANDS=     96
   number of dos      NEDOS =    301   number of ions     NIONS =     20
   non local maximal  LDIM  =      6   non local SUM 2l+1 LMDIM =     18
   total plane-waves  NPLWV =  69120
   max r-space proj   IRMAX =   1697   max aug-charges    IRDMAX=   6658
   dimension x,y,z NGX =    36 NGY =   48 NGZ =   40
   dimension x,y,z NGXF=    72 NGYF=   96 NGZF=   80
   support grid    NGXF=    72 NGYF=   96 NGZF=   80
   ions per type =              10   2   8
   NGX,Y,Z   is equivalent  to a cutoff of   8.85,  9.12,  8.51 a.u.
   NGXF,Y,Z  is equivalent  to a cutoff of  17.70, 18.23, 17.02 a.u.

 SYSTEM =  unknown system                          
 POSCAR =  Na10 In2 S8                             

 Startparameter for this run:
   NWRITE =      2    write-flag & timer
   PREC   = normal    normal or accurate (medium, high low for compatibility)
   ISTART =      0    job   : 0-new  1-cont  2-samecut
   ICHARG =      2    charge: 1-file 2-atom 10-const
   ISPIN  =      1    spin polarized calculation?
   LNONCOLLINEAR =      F non collinear calculations
   LSORBIT =      F    spin-orbit coupling
   INIWAV =      1    electr: 0-lowe 1-rand  2-diag
   LASPH  =      F    aspherical Exc in radial PAW
 Electronic Relaxation 1
   ENCUT  =  400.0 eV  29.40 Ry    5.42 a.u.  11.03 14.27 12.74*2*pi/ulx,y,z
   ENINI  =  400.0     initial cutoff
   ENAUG  =  449.7 eV  augmentation charge cutoff
   NELM   =     60;   NELMIN=  2; NELMDL= -5     # of ELM steps 
   EDIFF  = 0.1E-04   stopping-criterion for ELM
   LREAL  =      T    real-space projection
   NLSPLINE    = F    spline interpolate recip. space projectors
   LCOMPAT=      F    compatible to vasp.4.4
   GGA_COMPAT  = T    GGA compatible to vasp.4.4-vasp.4.6
   LMAXPAW     = -100 max onsite density
   LMAXMIX     =    2 max onsite mixed and CHGCAR
   VOSKOWN=      0    Vosko Wilk Nusair interpolation
   ROPT   =   -0.00050  -0.00050  -0.00050
 Ionic relaxation
   EDIFFG = -.5E-01   stopping-criterion for IOM
   NSW    =    100    number of steps for IOM
   NBLOCK =      1;   KBLOCK =    100    inner block; outer block 
   IBRION =      2    ionic relax: 0-MD 1-quasi-New 2-CG
   NFREE  =      1    steps in history (QN), initial steepest desc. (CG)
   ISIF   =      3    stress and relaxation
   IWAVPR =     11    prediction:  0-non 1-charg 2-wave 3-comb
   ISYM   =      2    0-nonsym 1-usesym 2-fastsym
   LCORR  =      T    Harris-Foulkes like correction to forces

   POTIM  = 0.5000    time-step for ionic-motion
   TEIN   =    0.0    initial temperature
   TEBEG  =    0.0;   TEEND  =   0.0 temperature during run
   SMASS  =  -3.00    Nose mass-parameter (am)
   estimated Nose-frequenzy (Omega)   =  0.10E-29 period in steps = 0.13E+47 mass=  -0.104E-26a.u.
   SCALEE = 1.0000    scale energy and forces
   NPACO  =    256;   APACO  = 10.0  distance and # of slots for P.C.
   PSTRESS=    0.0 pullay stress

  Mass of Ions in am
   POMASS =  22.99114.82 32.07
  Ionic Valenz
   ZVAL   =   7.00 13.00  6.00
  Atomic Wigner-Seitz radii
   RWIGS  =  -1.00 -1.00 -1.00
  virtual crystal weights 
   VCA    =   1.00  1.00  1.00
   NELECT =     144.0000    total number of electrons
   NUPDOWN=      -1.0000    fix difference up-down

 DOS related values:
   EMIN   =  10.00;   EMAX   =-10.00  energy-range for DOS
   EFERMI =   0.00
   ISMEAR =     0;   SIGMA  =   0.05  broadening in eV -4-tet -1-fermi 0-gaus

 Electronic relaxation 2 (details)
   IALGO  =     38    algorithm
   LDIAG  =      T    sub-space diagonalisation (order eigenvalues)
   LSUBROT=      F    optimize rotation matrix (better conditioning)
   TURBO    =      0    0=normal 1=particle mesh
   IRESTART =      0    0=no restart 2=restart with 2 vectors
   NREBOOT  =      0    no. of reboots
   NMIN     =      0    reboot dimension
   EREF     =   0.00    reference energy to select bands
   IMIX   =      4    mixing-type and parameters
     AMIX     =   0.40;   BMIX     =  1.00
     AMIX_MAG =   1.60;   BMIX_MAG =  1.00
     AMIN     =   0.10
     WC   =   100.;   INIMIX=   1;  MIXPRE=   1;  MAXMIX= -45

 Intra band minimization:
   WEIMIN = 0.0010     energy-eigenvalue tresh-hold
   EBREAK =  0.26E-07  absolut break condition
   DEPER  =   0.30     relativ break condition  

   TIME   =   0.40     timestep for ELM

  volume/ion in A,a.u.               =      23.11       155.97
  Fermi-wavevector in a.u.,A,eV,Ry     =   1.109777  2.097174 16.756999  1.231605
  Thomas-Fermi vector in A             =   2.246321

 Write flags
   LWAVE        =      F    write WAVECAR
   LDOWNSAMPLE  =      F    k-point downsampling of WAVECAR
   LCHARG       =      F    write CHGCAR
   LVTOT        =      F    write LOCPOT, total local potential
   LVHAR        =      F    write LOCPOT, Hartree potential only
   LELF         =      F    write electronic localiz. function (ELF)
   LORBIT       =      0    0 simple, 1 ext, 2 COOP (PROOUT), +10 PAW based schemes


 Dipole corrections
   LMONO  =      F    monopole corrections only (constant potential shift)
   LDIPOL =      F    correct potential (dipole corrections)
   IDIPOL =      0    1-x, 2-y, 3-z, 4-all directions 
   EPSILON=  1.0000000 bulk dielectric constant

 Exchange correlation treatment:
   GGA     =    --    GGA type
   LEXCH   =     8    internal setting for exchange type
   LIBXC   =     F    Libxc                    
   VOSKOWN =     0    Vosko Wilk Nusair interpolation
   LHFCALC =     F    Hartree Fock is set to
   LHFONE  =     F    Hartree Fock one center treatment
   AEXX    =    0.0000 exact exchange contribution

 Linear response parameters
   LEPSILON=     F    determine dielectric tensor
   LRPA    =     F    only Hartree local field effects (RPA)
   LNABLA  =     F    use nabla operator in PAW spheres
   LVEL    =     F    velocity operator in full k-point grid
   CSHIFT  =0.1000    complex shift for real part using Kramers Kronig
   OMEGAMAX=  -1.0    maximum frequency
   DEG_THRESHOLD= 0.2000000E-02 threshold for treating states as degnerate
   RTIME   =   -0.100 relaxation time in fs
  (WPLASMAI=    0.000 imaginary part of plasma frequency in eV, 0.658/RTIME)
   DFIELD  = 0.0000000 0.0000000 0.0000000 field for delta impulse in time

  Optional k-point grid parameters
   LKPOINTS_OPT  =     F    use optional k-point grid
   KPOINTS_OPT_MODE=     1    mode for optional k-point grid

 Orbital magnetization related:
   ORBITALMAG=     F  switch on orbital magnetization
   LCHIMAG   =     F  perturbation theory with respect to B field
   DQ        =  0.001000  dq finite difference perturbation B field
   LLRAUG    =     F  two centre corrections for induced B field



--------------------------------------------------------------------------------------------------------


 conjugate gradient relaxation of ions
 charge density and potential will be updated during run
 non-spin polarized calculation
 Variant of blocked Davidson
 Davidson routine will perform the subspace rotation
 perform sub-space diagonalisation
    after iterative eigenvector-optimisation
 modified Broyden-mixing scheme, WC =      100.0
 initial mixing is a Kerker type mixing with AMIX =  0.4000 and BMIX =      1.0000
 Hartree-type preconditioning will be used
 using additional bands           24
 real space projection scheme for non local part
 use partial core corrections
 calculate Harris-corrections to forces   (improved forces if not selfconsistent)
 use gradient corrections 
 use of overlap-Matrix (Vanderbilt PP)
 Gauss-broadening in eV      SIGMA  =   0.05


--------------------------------------------------------------------------------------------------------


  energy-cutoff  :      400.00
  volume of cell :      462.25
      direct lattice vectors                 reciprocal lattice vectors
     6.760481658  0.000000000 -0.122013970     0.147918455  0.000000000 -0.000000000
    -0.000000000  8.752463480  0.000000000    -0.000000000  0.114253547  0.000000000
     0.000000000  0.000000000  7.812176210     0.002310255 -0.000000000  0.128005305

  length of vectors
     6.761582630  8.752463480  7.812176210     0.147918455  0.114253547  0.128026151



 k-points in units of 2pi/SCALE and weight: pymatgen with grid density = 500 / numbe
   0.00000000  0.00000000  0.00000000       0.083
   0.04930615  0.00000000  0.00000000       0.167
   0.00000000  0.05712677  0.00000000       0.083
   0.04930615  0.05712677  0.00000000       0.167
   0.00115513  0.00000000  0.06400265       0.083
   0.05046128  0.00000000  0.06400265       0.167
   0.00115513  0.05712677  0.06400265       0.083
   0.05046128  0.05712677  0.06400265       0.167

 k-points in reciprocal lattice and weights: pymatgen with grid density = 500 / numbe
   0.00000000  0.00000000  0.00000000       0.083
   0.33333333  0.00000000  0.00000000       0.167
   0.00000000  0.50000000  0.00000000       0.083
   0.33333333  0.50000000  0.00000000       0.167
   0.00000000  0.00000000  0.50000000       0.083
   0.33333333  0.00000000  0.50000000       0.167
   0.00000000  0.50000000  0.50000000       0.083
   0.33333333  0.50000000  0.50000000       0.167

 position of ions in fractional coordinates (direct lattice) 
   0.65642310  0.52044064  0.66518117
   0.34357690  0.02044064  0.33481883
   0.34357690  0.47955936  0.33481883
   0.65642310  0.97955936  0.66518117
   0.97471276  0.25000000  0.52859402
   0.02528724  0.75000000  0.47140598
   0.66901491  0.25000000  0.16091715
   0.33098509  0.75000000  0.83908285
   0.00000000  0.00000000  0.00000000
   0.00000000  0.50000000  0.00000000
   0.63926407  0.75000000  0.17610751
   0.36073593  0.25000000  0.82389249
   0.75983242  0.75000000  0.87905140
   0.24016758  0.25000000  0.12094860
   0.23332648  0.01840335  0.67166090
   0.76667352  0.51840335  0.32833910
   0.76667352  0.98159665  0.32833910
   0.23332648  0.48159665  0.67166090
   0.72875646  0.25000000  0.82150746
   0.27124354  0.75000000  0.17849254

 position of ions in cartesian coordinates  (Angst):
   4.43773633  4.55513770  5.11641972
   2.32274533  0.17890596  2.57374252
   2.32274533  4.19732578  2.57374252
   4.43773633  8.57355752  5.11641972
   6.58952774  2.18811587  4.01054105
   0.17095392  6.56434761  3.67962119
   4.52286303  2.18811587  1.17548397
   2.23761863  6.56434761  6.51467827
   0.00000000  0.00000000  0.00000000
  -0.00000000  4.37623174  0.00000000
   4.32173302  6.56434761  1.29778375
   2.43874864  2.18811587  6.39237849
   5.13683314  6.56434761  6.77459426
   1.62364852  2.18811587  0.91556798
   1.57739939  0.16107465  5.21866421
   5.18308227  4.53730639  2.47149803
   5.18308227  8.59138883  2.47149803
   1.57739939  4.21515709  5.21866421
   4.92674468  2.18811587  6.32884257
   1.83373698  6.56434761  1.36131967



--------------------------------------------------------------------------------------------------------


 k-point   1 :   0.0000 0.0000 0.0000  plane waves:    8365
 k-point   2 :   0.3333 0.0000 0.0000  plane waves:    8407
 k-point   3 :   0.0000 0.5000 0.0000  plane waves:    8420
 k-point   4 :   0.3333 0.5000 0.0000  plane waves:    8412
 k-point   5 :   0.0000 0.0000 0.5000  plane waves:    8396
 k-point   6 :   0.3333 0.0000 0.5000  plane waves:    8397
 k-point   7 :   0.0000 0.5000 0.5000  plane waves:    8376
 k-point   8 :   0.3333 0.5000 0.5000  plane waves:    8402

 maximum and minimum number of plane-waves per node :      8420     8365

 maximum number of plane-waves:      8420
 maximum index in each direction: 
   IXMAX=   11   IYMAX=   14   IZMAX=   12
   IXMIN=  -11   IYMIN=  -14   IZMIN=  -13


 serial   3D FFT for wavefunctions
 parallel 3D FFT for charge:
    minimum data exchange during FFTs selected (reduces bandwidth)


 total amount of memory used by VASP MPI-rank0    41606. kBytes
=======================================================================

   base      :      30000. kBytes
   nonlr-proj:       2643. kBytes
   fftplans  :       1041. kBytes
   grid      :       4294. kBytes
   one-center:        311. kBytes
   wavefun   :       3317. kBytes

     INWAV:  cpu time      0.0000: real time      0.0002
 Broyden mixing: mesh for mixing (old mesh)
   NGX = 23   NGY = 29   NGZ = 25
  (NGX  = 72   NGY  = 96   NGZ  = 80)
  gives a total of  16675 points

 initial charge density was supplied:
 charge density of overlapping atoms calculated
 number of electron     144.0000000 magnetization 
 keeping initial charge density in first step


--------------------------------------------------------------------------------------------------------


 Maximum index for non-local projection operator         1608
 Maximum index for augmentation-charges          467 (set IRDMAX)


--------------------------------------------------------------------------------------------------------


 First call to EWALD:  gamma=   0.229
 Maximum number of real-space cells 3x 2x 3
 Maximum number of reciprocal cells 2x 3x 3

    FEWALD:  cpu time      0.0007: real time      0.0009


--------------------------------------- Iteration      1(   1)  ---------------------------------------


    POTLOK:  cpu time      0.0207: real time      0.0211
    SETDIJ:  cpu time      0.0026: real time      0.0029
     EDDAV:  cpu time      0.7951: real time      0.7956
       DOS:  cpu time      0.0005: real time      0.0007
    --------------------------------------------
      LOOP:  cpu time      0.8189: real time      0.8203

 eigenvalue-minimisations  :  1536
 total energy-change (2. order) : 0.1229608E+04  (-0.6326708E+04)
 number of electron     144.0000000 magnetization 
 augmentation part      144.0000000 magnetization 

 Free energy of the ion-electron system (eV)
  ---------------------------------------------------
  alpha Z        PSCENC =       242.37274643
  Ewald energy   TEWEN  =     -7474.95094769
  -Hartree energ DENC   =     -3797.69099574
  -exchange      EXHF   =         0.00000000
  -V(xc)+E(xc)   XCENC  =       428.01134518
  PAW double counting   =      9525.23208831   -10366.82352863
  entropy T*S    EENTRO =        -0.01265141
  eigenvalues    EBANDS =      -355.06328550
  atomic energy  EATOM  =     13028.53302362
  Solvation  Ediel_sol  =         0.00000000
  ---------------------------------------------------
  free energy    TOTEN  =      1229.60779457 eV

  energy without entropy =     1229.62044598  energy(sigma->0) =     1229.61412028


--------------------------------------------------------------------------------------------------------




--------------------------------------- Iteration      1(   2)  ---------------------------------------


     EDDAV:  cpu time      0.8636: real time      0.8646
       DOS:  cpu time      0.0002: real time      0.0003
    --------------------------------------------
      LOOP:  cpu time      0.8638: real time      0.8649

 eigenvalue-minimisations  :  1664
 total energy-change (2. order) :-0.1189166E+04  (-0.1164345E+04)
 number of electron     144.0000000 magnetization 
 augmentation part      144.0000000 magnetization 

 Free energy of the ion-electron system (eV)
  ---------------------------------------------------
  alpha Z        PSCENC =       242.37274643
  Ewald energy   TEWEN  =     -7474.95094769
  -Hartree energ DENC   =     -3797.69099574
  -exchange      EXHF   =         0.00000000
  -V(xc)+E(xc)   XCENC  =       428.01134518
  PAW double counting   =      9525.23208831   -10366.82352863
  entropy T*S    EENTRO =        -0.00000000
  eigenvalues    EBANDS =     -1544.24182637
  atomic energy  EATOM  =     13028.53302362
  Solvation  Ediel_sol  =         0.00000000
  ---------------------------------------------------
  free energy    TOTEN  =        40.44190511 eV

  energy without entropy =       40.44190511  energy(sigma->0) =       40.44190511


--------------------------------------------------------------------------------------------------------




--------------------------------------- Iteration      1(   3)  ---------------------------------------


     EDDAV:  cpu time      1.1307: real time      1.1314
       DOS:  cpu time      0.0002: real time      0.0003
    --------------------------------------------
      LOOP:  cpu time      1.1309: real time      1.1317

 eigenvalue-minimisations  :  1984
 total energy-change (2. order) :-0.1138136E+03  (-0.1132463E+03)
 number of electron     144.0000000 magnetization 
 augmentation part      144.0000000 magnetization 

 Free energy of the ion-electron system (eV)
  ---------------------------------------------------
  alpha Z        PSCENC =       242.37274643
  Ewald energy   TEWEN  =     -7474.95094769
  -Hartree energ DENC   =     -3797.69099574
  -exchange      EXHF   =         0.00000000
  -V(xc)+E(xc)   XCENC  =       428.01134518
  PAW double counting   =      9525.23208831   -10366.82352863
  entropy T*S    EENTRO =        -0.00000000
  eigenvalues    EBANDS =     -1658.05539221
  atomic energy  EATOM  =     13028.53302362
  Solvation  Ediel_sol  =         0.00000000
  ---------------------------------------------------
  free energy    TOTEN  =       -73.37166073 eV

  energy without entropy =      -73.37166073  energy(sigma->0) =      -73.37166073


--------------------------------------------------------------------------------------------------------




--------------------------------------- Iteration      1(   4)  ---------------------------------------


     EDDAV:  cpu time      0.9844: real time      0.9857
       DOS:  cpu time      0.0002: real time      0.0003
    --------------------------------------------
      LOOP:  cpu time      0.9846: real time      0.9860

 eigenvalue-minimisations  :  1824
 total energy-change (2. order) :-0.3117866E+01  (-0.3114868E+01)
 number of electron     144.0000000 magnetization 
 augmentation part      144.0000000 magnetization 

 Free energy of the ion-electron system (eV)
  ---------------------------------------------------
  alpha Z        PSCENC =       242.37274643
  Ewald energy   TEWEN  =     -7474.95094769
  -Hartree energ DENC   =     -3797.69099574
  -exchange      EXHF   =         0.00000000
  -V(xc)+E(xc)   XCENC  =       428.01134518
  PAW double counting   =      9525.23208831   -10366.82352863
  entropy T*S    EENTRO =        -0.00000000
  eigenvalues    EBANDS =     -1661.17325829
  atomic energy  EATOM  =     13028.53302362
  Solvation  Ediel_sol  =         0.00000000
  ---------------------------------------------------
  free energy    TOTEN  =       -76.48952680 eV

  energy without entropy =      -76.48952680  energy(sigma->0) =      -76.48952680


--------------------------------------------------------------------------------------------------------




--------------------------------------- Iteration      1(   5)  ---------------------------------------


     EDDAV:  cpu time      1.2508: real time      1.2518
       DOS:  cpu time      0.0002: real time      0.0003
    CHARGE:  cpu time      0.0361: real time      0.0364
    MIXING:  cpu time      0.0010: real time      0.0011
    --------------------------------------------
      LOOP:  cpu time      1.2881: real time      1.2897

 eigenvalue-minimisations  :  2208
 total energy-change (2. order) :-0.1193261E+00  (-0.1193158E+00)
 number of electron     144.0000172 magnetization 
 augmentation part       51.8006021 magnetization 

 Broyden mixing:
  rms(total) = 0.13533E+01    rms(broyden)= 0.13533E+01
  rms(prec ) = 0.18786E+01
  weight for this iteration     100.00

 Free energy of the ion-electron system (eV)
  ---------------------------------------------------
  alpha Z        PSCENC =       242.37274643
  Ewald energy   TEWEN  =     -7474.95094769
  -Hartree energ DENC   =     -3797.69099574
  -exchange      EXHF   =         0.00000000
  -V(xc)+E(xc)   XCENC  =       428.01134518
  PAW double counting   =      9525.23208831   -10366.82352863
  entropy T*S    EENTRO =        -0.00000000
  eigenvalues    EBANDS =     -1661.29258443
  atomic energy  EATOM  =     13028.53302362
  Solvation  Ediel_sol  =         0.00000000
  ---------------------------------------------------
  free energy    TOTEN  =       -76.60885294 eV

  energy without entropy =      -76.60885294  energy(sigma->0) =      -76.60885294


--------------------------------------------------------------------------------------------------------




--------------------------------------- Iteration      1(   6)  ---------------------------------------


    POTLOK:  cpu time      0.0142: real time      0.0144
    SETDIJ:  cpu time      0.0019: real time      0.0019
     EDDAV:  cpu time      1.2174: real time      1.2182
       DOS:  cpu time      0.0002: real time      0.0004
    CHARGE:  cpu time      0.0356: real time      0.0356
    MIXING:  cpu time      0.0007: real time      0.0007
    --------------------------------------------
      LOOP:  cpu time      1.2699: real time      1.2711

 eigenvalue-minimisations  :  2240
 total energy-change (2. order) : 0.4733002E+01  (-0.8625317E+00)
 number of electron     144.0000172 magnetization 
 augmentation part       52.1922210 magnetization 

 Broyden mixing:
  rms(total) = 0.10175E+01    rms(broyden)= 0.10175E+01
  rms(prec ) = 0.11226E+01
  weight for this iteration     100.00

 eigenvalues of (default mixing * dielectric matrix)
  average eigenvalue GAMMA=   1.4372
  1.4372

 Free energy of the ion-electron system (eV)
  ---------------------------------------------------
  alpha Z        PSCENC =       242.37274643
  Ewald energy   TEWEN  =     -7474.95094769
  -Hartree energ DENC   =     -3803.89152684
  -exchange      EXHF   =         0.00000000
  -V(xc)+E(xc)   XCENC  =       430.95239528
  PAW double counting   =     10740.44416597   -11578.97057115
  entropy T*S    EENTRO =        -0.00000000
  eigenvalues    EBANDS =     -1656.36513647
  atomic energy  EATOM  =     13028.53302362
  Solvation  Ediel_sol  =         0.00000000
  ---------------------------------------------------
  free energy    TOTEN  =       -71.87585085 eV

  energy without entropy =      -71.87585085  energy(sigma->0) =      -71.87585085


--------------------------------------------------------------------------------------------------------




--------------------------------------- Iteration      1(   7)  ---------------------------------------


    POTLOK:  cpu time      0.0141: real time      0.0143
    SETDIJ:  cpu time      0.0019: real time      0.0019
     EDDAV:  cpu time      1.3806: real time      1.3811
       DOS:  cpu time      0.0002: real time      0.0004
    CHARGE:  cpu time      0.0353: real time      0.0353
    MIXING:  cpu time      0.0006: real time      0.0006
    --------------------------------------------
      LOOP:  cpu time      1.4326: real time      1.4335

 eigenvalue-minimisations  :  2432
 total energy-change (2. order) : 0.2586288E+00  (-0.2940216E+00)
 number of electron     144.0000172 magnetization 
 augmentation part       52.3830252 magnetization 

 Broyden mixing:
  rms(total) = 0.54369E+00    rms(broyden)= 0.54369E+00
  rms(prec ) = 0.57663E+00
  weight for this iteration     100.00

 eigenvalues of (default mixing * dielectric matrix)
  average eigenvalue GAMMA=   1.6549
  1.6549  1.6549

 Free energy of the ion-electron system (eV)
  ---------------------------------------------------
  alpha Z        PSCENC =       242.37274643
  Ewald energy   TEWEN  =     -7474.95094769
  -Hartree energ DENC   =     -3809.63890494
  -exchange      EXHF   =         0.00000000
  -V(xc)+E(xc)   XCENC  =       432.66965899
  PAW double counting   =     12433.90056578   -13274.81688329
  entropy T*S    EENTRO =        -0.00000000
  eigenvalues    EBANDS =     -1649.68648094
  atomic energy  EATOM  =     13028.53302362
  Solvation  Ediel_sol  =         0.00000000
  ---------------------------------------------------
  free energy    TOTEN  =       -71.61722205 eV

  energy without entropy =      -71.61722205  energy(sigma->0) =      -71.61722205


--------------------------------------------------------------------------------------------------------




--------------------------------------- Iteration      1(   8)  ---------------------------------------


    POTLOK:  cpu time      0.0141: real time      0.0143
    SETDIJ:  cpu time      0.0019: real time      0.0019
     EDDAV:  cpu time      1.1930: real time      1.1941
       DOS:  cpu time      0.0002: real time      0.0004
    CHARGE:  cpu time      0.0356: real time      0.0356
    MIXING:  cpu time      0.0006: real time      0.0006
    --------------------------------------------
      LOOP:  cpu time      1.2455: real time      1.2469

 eigenvalue-minimisations  :  2144
 total energy-change (2. order) :-0.2957353E-01  (-0.2185388E-01)
 number of electron     144.0000172 magnetization 
 augmentation part       52.3334028 magnetization 

 Broyden mixing:
  rms(total) = 0.13299E+00    rms(broyden)= 0.13299E+00
  rms(prec ) = 0.16025E+00
  weight for this iteration     100.00

 eigenvalues of (default mixing * dielectric matrix)
  average eigenvalue GAMMA=   1.6030
  2.3444  1.2323  1.2323

 Free energy of the ion-electron system (eV)
  ---------------------------------------------------
  alpha Z        PSCENC =       242.37274643
  Ewald energy   TEWEN  =     -7474.95094769
  -Hartree energ DENC   =     -3807.34725987
  -exchange      EXHF   =         0.00000000
  -V(xc)+E(xc)   XCENC  =       432.96424601
  PAW double counting   =     13424.35887251   -14268.55346249
  entropy T*S    EENTRO =        -0.00000000
  eigenvalues    EBANDS =     -1649.02401410
  atomic energy  EATOM  =     13028.53302362
  Solvation  Ediel_sol  =         0.00000000
  ---------------------------------------------------
  free energy    TOTEN  =       -71.64679558 eV

  energy without entropy =      -71.64679558  energy(sigma->0) =      -71.64679558


--------------------------------------------------------------------------------------------------------




--------------------------------------- Iteration      1(   9)  ---------------------------------------


    POTLOK:  cpu time      0.0140: real time      0.0143
    SETDIJ:  cpu time      0.0019: real time      0.0019
     EDDAV:  cpu time      1.4425: real time      1.4433
       DOS:  cpu time      0.0002: real time      0.0004
    CHARGE:  cpu time      0.0354: real time      0.0354
    MIXING:  cpu time      0.0006: real time      0.0006
    --------------------------------------------
      LOOP:  cpu time      1.4946: real time      1.4958

 eigenvalue-minimisations  :  2496
 total energy-change (2. order) :-0.4842892E-02  (-0.5309772E-02)
 number of electron     144.0000172 magnetization 
 augmentation part       52.3512474 magnetization 

 Broyden mixing:
  rms(total) = 0.55896E-01    rms(broyden)= 0.55895E-01
  rms(prec ) = 0.59350E-01
  weight for this iteration     100.00

 eigenvalues of (default mixing * dielectric matrix)
  average eigenvalue GAMMA=   1.4418
  2.0202  1.1407  1.1407  1.4657

 Free energy of the ion-electron system (eV)
  ---------------------------------------------------
  alpha Z        PSCENC =       242.37274643
  Ewald energy   TEWEN  =     -7474.95094769
  -Hartree energ DENC   =     -3807.00740306
  -exchange      EXHF   =         0.00000000
  -V(xc)+E(xc)   XCENC  =       433.35069702
  PAW double counting   =     13763.36715534   -14608.02803750
  entropy T*S    EENTRO =        -0.00000000
  eigenvalues    EBANDS =     -1649.28887262
  atomic energy  EATOM  =     13028.53302362
  Solvation  Ediel_sol  =         0.00000000
  ---------------------------------------------------
  free energy    TOTEN  =       -71.65163847 eV

  energy without entropy =      -71.65163847  energy(sigma->0) =      -71.65163847


--------------------------------------------------------------------------------------------------------




--------------------------------------- Iteration      1(  10)  ---------------------------------------


    POTLOK:  cpu time      0.0143: real time      0.0143
    SETDIJ:  cpu time      0.0020: real time      0.0020
     EDDAV:  cpu time      1.0134: real time      1.0140
       DOS:  cpu time      0.0002: real time      0.0004
    CHARGE:  cpu time      0.0358: real time      0.0358
    MIXING:  cpu time      0.0006: real time      0.0006
    --------------------------------------------
      LOOP:  cpu time      1.0663: real time      1.0671

 eigenvalue-minimisations  :  1888
 total energy-change (2. order) :-0.1881650E-02  (-0.4308259E-03)
 number of electron     144.0000172 magnetization 
 augmentation part       52.3536663 magnetization 

 Broyden mixing:
  rms(total) = 0.28942E-01    rms(broyden)= 0.28942E-01
  rms(prec ) = 0.35123E-01
  weight for this iteration     100.00

 eigenvalues of (default mixing * dielectric matrix)
  average eigenvalue GAMMA=   1.7897
  2.8390  2.8390  1.1485  1.1485  0.9737

 Free energy of the ion-electron system (eV)
  ---------------------------------------------------
  alpha Z        PSCENC =       242.37274643
  Ewald energy   TEWEN  =     -7474.95094769
  -Hartree energ DENC   =     -3807.20005731
  -exchange      EXHF   =         0.00000000
  -V(xc)+E(xc)   XCENC  =       433.33138052
  PAW double counting   =     13645.01792602   -14489.56602889
  entropy T*S    EENTRO =        -0.00000000
  eigenvalues    EBANDS =     -1649.19156283
  atomic energy  EATOM  =     13028.53302362
  Solvation  Ediel_sol  =         0.00000000
  ---------------------------------------------------
  free energy    TOTEN  =       -71.65352012 eV

  energy without entropy =      -71.65352012  energy(sigma->0) =      -71.65352012


--------------------------------------------------------------------------------------------------------




--------------------------------------- Iteration      1(  11)  ---------------------------------------


    POTLOK:  cpu time      0.0141: real time      0.0143
    SETDIJ:  cpu time      0.0019: real time      0.0019
     EDDAV:  cpu time      1.0821: real time      1.0827
       DOS:  cpu time      0.0002: real time      0.0004
    CHARGE:  cpu time      0.0354: real time      0.0354
    MIXING:  cpu time      0.0006: real time      0.0006
    --------------------------------------------
      LOOP:  cpu time      1.1344: real time      1.1353

 eigenvalue-minimisations  :  1952
 total energy-change (2. order) :-0.3776853E-02  (-0.5249793E-03)
 number of electron     144.0000172 magnetization 
 augmentation part       52.3532011 magnetization 

 Broyden mixing:
  rms(total) = 0.89674E-02    rms(broyden)= 0.89673E-02
  rms(prec ) = 0.97104E-02
  weight for this iteration     100.00

 eigenvalues of (default mixing * dielectric matrix)
  average eigenvalue GAMMA=   1.6005
  2.8875  2.4416  1.2466  1.1315  1.1315  0.7641

 Free energy of the ion-electron system (eV)
  ---------------------------------------------------
  alpha Z        PSCENC =       242.37274643
  Ewald energy   TEWEN  =     -7474.95094769
  -Hartree energ DENC   =     -3807.33257717
  -exchange      EXHF   =         0.00000000
  -V(xc)+E(xc)   XCENC  =       433.38397366
  PAW double counting   =     13560.68367468   -14405.40139266
  entropy T*S    EENTRO =        -0.00000000
  eigenvalues    EBANDS =     -1648.94579784
  atomic energy  EATOM  =     13028.53302362
  Solvation  Ediel_sol  =         0.00000000
  ---------------------------------------------------
  free energy    TOTEN  =       -71.65729697 eV

  energy without entropy =      -71.65729697  energy(sigma->0) =      -71.65729697


--------------------------------------------------------------------------------------------------------




--------------------------------------- Iteration      1(  12)  ---------------------------------------


    POTLOK:  cpu time      0.0140: real time      0.0142
    SETDIJ:  cpu time      0.0019: real time      0.0019
     EDDAV:  cpu time      1.0401: real time      1.0408
       DOS:  cpu time      0.0002: real time      0.0004
    CHARGE:  cpu time      0.0357: real time      0.0357
    MIXING:  cpu time      0.0007: real time      0.0007
    --------------------------------------------
      LOOP:  cpu time      1.0927: real time      1.0936

 eigenvalue-minimisations  :  1920
 total energy-change (2. order) : 0.3368010E-05  (-0.1215554E-04)
 number of electron     144.0000172 magnetization 
 augmentation part       52.3530552 magnetization 

 Broyden mixing:
  rms(total) = 0.80922E-02    rms(broyden)= 0.80922E-02
  rms(prec ) = 0.83793E-02
  weight for this iteration     100.00

 eigenvalues of (default mixing * dielectric matrix)
  average eigenvalue GAMMA=   1.5919
  2.6731  2.6731  1.5930  1.2163  1.2163  0.8856  0.8856

 Free energy of the ion-electron system (eV)
  ---------------------------------------------------
  alpha Z        PSCENC =       242.37274643
  Ewald energy   TEWEN  =     -7474.95094769
  -Hartree energ DENC   =     -3807.43416756
  -exchange      EXHF   =         0.00000000
  -V(xc)+E(xc)   XCENC  =       433.39658143
  PAW double counting   =     13584.73725009   -14429.48552615
  entropy T*S    EENTRO =        -0.00000000
  eigenvalues    EBANDS =     -1648.82625377
  atomic energy  EATOM  =     13028.53302362
  Solvation  Ediel_sol  =         0.00000000
  ---------------------------------------------------
  free energy    TOTEN  =       -71.65729361 eV

  energy without entropy =      -71.65729361  energy(sigma->0) =      -71.65729361


--------------------------------------------------------------------------------------------------------




--------------------------------------- Iteration      1(  13)  ---------------------------------------


    POTLOK:  cpu time      0.0141: real time      0.0143
    SETDIJ:  cpu time      0.0019: real time      0.0019
     EDDAV:  cpu time      0.9703: real time      0.9708
       DOS:  cpu time      0.0002: real time      0.0004
    CHARGE:  cpu time      0.0355: real time      0.0355
    MIXING:  cpu time      0.0006: real time      0.0006
    --------------------------------------------
      LOOP:  cpu time      1.0226: real time      1.0235

 eigenvalue-minimisations  :  1696
 total energy-change (2. order) :-0.6003694E-04  (-0.8315768E-05)
 number of electron     144.0000172 magnetization 
 augmentation part       52.3532025 magnetization 

 Broyden mixing:
  rms(total) = 0.17570E-02    rms(broyden)= 0.17570E-02
  rms(prec ) = 0.21102E-02
  weight for this iteration     100.00

 eigenvalues of (default mixing * dielectric matrix)
  average eigenvalue GAMMA=   1.5939
  3.1345  2.2100  1.8602  1.0874  1.0874  1.2475  1.2475  0.8768

 Free energy of the ion-electron system (eV)
  ---------------------------------------------------
  alpha Z        PSCENC =       242.37274643
  Ewald energy   TEWEN  =     -7474.95094769
  -Hartree energ DENC   =     -3807.59946411
  -exchange      EXHF   =         0.00000000
  -V(xc)+E(xc)   XCENC  =       433.40094274
  PAW double counting   =     13575.05026523   -14419.79341458
  entropy T*S    EENTRO =        -0.00000000
  eigenvalues    EBANDS =     -1648.67050528
  atomic energy  EATOM  =     13028.53302362
  Solvation  Ediel_sol  =         0.00000000
  ---------------------------------------------------
  free energy    TOTEN  =       -71.65735364 eV

  energy without entropy =      -71.65735364  energy(sigma->0) =      -71.65735364


--------------------------------------------------------------------------------------------------------




--------------------------------------- Iteration      1(  14)  ---------------------------------------


    POTLOK:  cpu time      0.0140: real time      0.0146
    SETDIJ:  cpu time      0.0019: real time      0.0019
     EDDAV:  cpu time      0.9893: real time      0.9897
       DOS:  cpu time      0.0002: real time      0.0004
    CHARGE:  cpu time      0.0357: real time      0.0361
    MIXING:  cpu time      0.0007: real time      0.0007
    --------------------------------------------
      LOOP:  cpu time      1.0418: real time      1.0433

 eigenvalue-minimisations  :  1728
 total energy-change (2. order) :-0.1166158E-04  (-0.1761023E-05)
 number of electron     144.0000172 magnetization 
 augmentation part       52.3528077 magnetization 

 Broyden mixing:
  rms(total) = 0.14118E-02    rms(broyden)= 0.14118E-02
  rms(prec ) = 0.15310E-02
  weight for this iteration     100.00

 eigenvalues of (default mixing * dielectric matrix)
  average eigenvalue GAMMA=   1.6174
  3.2226  2.3226  2.3226  1.2878  1.2878  1.1445  1.1445  0.9120  0.9120

 Free energy of the ion-electron system (eV)
  ---------------------------------------------------
  alpha Z        PSCENC =       242.37274643
  Ewald energy   TEWEN  =     -7474.95094769
  -Hartree energ DENC   =     -3807.59853491
  -exchange      EXHF   =         0.00000000
  -V(xc)+E(xc)   XCENC  =       433.40116876
  PAW double counting   =     13577.20220488   -14421.95441276
  entropy T*S    EENTRO =        -0.00000000
  eigenvalues    EBANDS =     -1648.66261363
  atomic energy  EATOM  =     13028.53302362
  Solvation  Ediel_sol  =         0.00000000
  ---------------------------------------------------
  free energy    TOTEN  =       -71.65736531 eV

  energy without entropy =      -71.65736531  energy(sigma->0) =      -71.65736531


--------------------------------------------------------------------------------------------------------




--------------------------------------- Iteration      1(  15)  ---------------------------------------


    POTLOK:  cpu time      0.0140: real time      0.0142
    SETDIJ:  cpu time      0.0019: real time      0.0019
     EDDAV:  cpu time      1.0379: real time      1.0387
       DOS:  cpu time      0.0003: real time      0.0004
    --------------------------------------------
      LOOP:  cpu time      1.0540: real time      1.0551

 eigenvalue-minimisations  :  1760
 total energy-change (2. order) :-0.6996252E-05  (-0.7930201E-06)
 number of electron     144.0000172 magnetization 
 augmentation part       52.3528077 magnetization 

 Free energy of the ion-electron system (eV)
  ---------------------------------------------------
  alpha Z        PSCENC =       242.37274643
  Ewald energy   TEWEN  =     -7474.95094769
  -Hartree energ DENC   =     -3807.64864381
  -exchange      EXHF   =         0.00000000
  -V(xc)+E(xc)   XCENC  =       433.40189151
  PAW double counting   =     13575.66046393   -14420.40835652
  entropy T*S    EENTRO =        -0.00000000
  eigenvalues    EBANDS =     -1648.61754979
  atomic energy  EATOM  =     13028.53302362
  Solvation  Ediel_sol  =         0.00000000
  ---------------------------------------------------
  free energy    TOTEN  =       -71.65737230 eV

  energy without entropy =      -71.65737230  energy(sigma->0) =      -71.65737230


--------------------------------------------------------------------------------------------------------




 average (electrostatic) potential at core
  the test charge radii are     0.9254  1.0774  0.9698
  (the norm of the test charge is              1.0000)
       1 -46.6776       2 -46.6776       3 -46.6776       4 -46.6776       5 -47.2185
       6 -47.2185       7 -46.8013       8 -46.8013       9 -46.7780      10 -46.7780
      11 -98.6400      12 -98.6400      13 -88.0646      14 -88.0646      15 -88.1344
      16 -88.1344      17 -88.1344      18 -88.1344      19 -88.0557      20 -88.0557



 E-fermi :   1.6549     XC(G=0):  -8.2883     alpha+bet : -8.7783

 Fermi energy:         1.6549195926

 k-point     1 :       0.0000    0.0000    0.0000
  band No.  band energies     occupation 
      1     -21.4243      2.00000
      2     -21.4239      2.00000
      3     -21.4185      2.00000
      4     -21.4177      2.00000
      5     -21.3960      2.00000
      6     -21.3916      2.00000
      7     -21.0300      2.00000
      8     -21.0214      2.00000
      9     -21.0080      2.00000
     10     -21.0077      2.00000
     11     -21.0073      2.00000
     12     -20.9911      2.00000
     13     -20.9858      2.00000
     14     -20.9787      2.00000
     15     -20.9700      2.00000
     16     -20.9676      2.00000
     17     -20.9553      2.00000
     18     -20.9511      2.00000
     19     -20.9009      2.00000
     20     -20.8998      2.00000
     21     -20.8947      2.00000
     22     -20.8910      2.00000
     23     -20.8897      2.00000
     24     -20.8893      2.00000
     25     -20.8849      2.00000
     26     -20.8825      2.00000
     27     -20.8711      2.00000
     28     -20.8697      2.00000
     29     -20.8517      2.00000
     30     -20.8502      2.00000
     31     -12.0918      2.00000
     32     -12.0890      2.00000
     33     -12.0863      2.00000
     34     -12.0834      2.00000
     35     -12.0829      2.00000
     36     -12.0809      2.00000
     37     -11.8648      2.00000
     38     -11.8642      2.00000
     39     -11.8552      2.00000
     40     -11.8551      2.00000
     41      -9.8849      2.00000
     42      -9.6322      2.00000
     43      -9.0430      2.00000
     44      -8.9815      2.00000
     45      -8.9374      2.00000
     46      -8.9338      2.00000
     47      -8.9262      2.00000
     48      -8.8668      2.00000
     49      -3.0008      2.00000
     50      -2.7450      2.00000
     51      -1.2031      2.00000
     52      -0.9893      2.00000
     53      -0.8143      2.00000
     54      -0.8067      2.00000
     55      -0.7591      2.00000
     56      -0.2842      2.00000
     57       0.0577      2.00000
     58       0.1410      2.00000
     59       0.1645      2.00000
     60       0.3063      2.00000
     61       0.3258      2.00000
     62       0.3634      2.00000
     63       0.5931      2.00000
     64       0.6882      2.00000
     65       0.7259      2.00000
     66       0.7396      2.00000
     67       0.8172      2.00000
     68       0.8600      2.00000
     69       1.1124      2.00000
     70       1.1154      2.00000
     71       1.1913      2.00000
     72       1.4172      2.00000
     73       3.5040      0.00000
     74       4.7555      0.00000
     75       5.8760      0.00000
     76       5.9931      0.00000
     77       6.2514      0.00000
     78       6.2521      0.00000
     79       6.3152      0.00000
     80       6.4996      0.00000
     81       7.1348      0.00000
     82       7.3357      0.00000
     83       7.4883      0.00000
     84       7.5579      0.00000
     85       7.5621      0.00000
     86       7.8976      0.00000
     87       8.1030      0.00000
     88       8.2082      0.00000
     89       8.4815      0.00000
     90       8.6589      0.00000
     91       8.7406      0.00000
     92       8.8365      0.00000
     93       8.9205      0.00000
     94       8.9311      0.00000
     95       9.1093      0.00000
     96       9.1339      0.00000

 k-point     2 :       0.3333    0.0000    0.0000
  band No.  band energies     occupation 
      1     -21.4243      2.00000
      2     -21.4240      2.00000
      3     -21.4185      2.00000
      4     -21.4177      2.00000
      5     -21.3961      2.00000
      6     -21.3916      2.00000
      7     -21.0303      2.00000
      8     -21.0214      2.00000
      9     -21.0085      2.00000
     10     -21.0075      2.00000
     11     -21.0071      2.00000
     12     -20.9913      2.00000
     13     -20.9855      2.00000
     14     -20.9797      2.00000
     15     -20.9703      2.00000
     16     -20.9670      2.00000
     17     -20.9555      2.00000
     18     -20.9514      2.00000
     19     -20.8991      2.00000
     20     -20.8983      2.00000
     21     -20.8949      2.00000
     22     -20.8914      2.00000
     23     -20.8902      2.00000
     24     -20.8897      2.00000
     25     -20.8851      2.00000
     26     -20.8823      2.00000
     27     -20.8703      2.00000
     28     -20.8693      2.00000
     29     -20.8530      2.00000
     30     -20.8514      2.00000
     31     -12.0914      2.00000
     32     -12.0888      2.00000
     33     -12.0856      2.00000
     34     -12.0842      2.00000
     35     -12.0812      2.00000
     36     -12.0783      2.00000
     37     -11.8650      2.00000
     38     -11.8641      2.00000
     39     -11.8556      2.00000
     40     -11.8548      2.00000
     41      -9.7746      2.00000
     42      -9.6177      2.00000
     43      -9.0549      2.00000
     44      -9.0129      2.00000
     45      -8.9655      2.00000
     46      -8.9552      2.00000
     47      -8.9515      2.00000
     48      -8.9215      2.00000
     49      -3.0339      2.00000
     50      -2.8951      2.00000
     51      -1.0437      2.00000
     52      -0.7756      2.00000
     53      -0.7303      2.00000
     54      -0.6457      2.00000
     55      -0.5369      2.00000
     56      -0.4100      2.00000
     57      -0.2093      2.00000
     58      -0.1632      2.00000
     59       0.0746      2.00000
     60       0.2597      2.00000
     61       0.4698      2.00000
     62       0.6286      2.00000
     63       0.7029      2.00000
     64       0.7067      2.00000
     65       0.7515      2.00000
     66       0.8290      2.00000
     67       0.8413      2.00000
     68       0.9803      2.00000
     69       1.0334      2.00000
     70       1.0507      2.00000
     71       1.1089      2.00000
     72       1.1336      2.00000
     73       4.2127      0.00000
     74       4.6235      0.00000
     75       5.6218      0.00000
     76       5.7468      0.00000
     77       6.0459      0.00000
     78       6.2499      0.00000
     79       6.4264      0.00000
     80       6.7863      0.00000
     81       6.8414      0.00000
     82       7.1990      0.00000
     83       7.3173      0.00000
     84       7.6800      0.00000
     85       7.8538      0.00000
     86       7.9203      0.00000
     87       7.9330      0.00000
     88       8.0808      0.00000
     89       8.2906      0.00000
     90       8.3635      0.00000
     91       8.4312      0.00000
     92       8.5584      0.00000
     93       8.8190      0.00000
     94       8.8805      0.00000
     95       9.0329      0.00000
     96       9.1336      0.00000

 k-point     3 :       0.0000    0.5000    0.0000
  band No.  band energies     occupation 
      1     -21.4241      2.00000
      2     -21.4241      2.00000
      3     -21.4182      2.00000
      4     -21.4182      2.00000
      5     -21.3939      2.00000
      6     -21.3939      2.00000
      7     -21.0265      2.00000
      8     -21.0265      2.00000
      9     -21.0080      2.00000
     10     -21.0080      2.00000
     11     -20.9998      2.00000
     12     -20.9998      2.00000
     13     -20.9808      2.00000
     14     -20.9808      2.00000
     15     -20.9688      2.00000
     16     -20.9688      2.00000
     17     -20.9533      2.00000
     18     -20.9533      2.00000
     19     -20.9004      2.00000
     20     -20.9004      2.00000
     21     -20.8925      2.00000
     22     -20.8925      2.00000
     23     -20.8885      2.00000
     24     -20.8885      2.00000
     25     -20.8853      2.00000
     26     -20.8853      2.00000
     27     -20.8704      2.00000
     28     -20.8704      2.00000
     29     -20.8510      2.00000
     30     -20.8510      2.00000
     31     -12.0904      2.00000
     32     -12.0904      2.00000
     33     -12.0855      2.00000
     34     -12.0855      2.00000
     35     -12.0815      2.00000
     36     -12.0815      2.00000
     37     -11.8645      2.00000
     38     -11.8645      2.00000
     39     -11.8552      2.00000
     40     -11.8552      2.00000
     41      -9.7605      2.00000
     42      -9.7605      2.00000
     43      -9.0092      2.00000
     44      -9.0092      2.00000
     45      -8.9380      2.00000
     46      -8.9380      2.00000
     47      -8.9008      2.00000
     48      -8.9008      2.00000
     49      -2.8283      2.00000
     50      -2.8283      2.00000
     51      -1.0173      2.00000
     52      -1.0173      2.00000
     53      -0.9103      2.00000
     54      -0.9103      2.00000
     55      -0.4199      2.00000
     56      -0.4199      2.00000
     57       0.1319      2.00000
     58       0.1319      2.00000
     59       0.2981      2.00000
     60       0.2981      2.00000
     61       0.4042      2.00000
     62       0.4042      2.00000
     63       0.4573      2.00000
     64       0.4573      2.00000
     65       0.6031      2.00000
     66       0.6031      2.00000
     67       0.7664      2.00000
     68       0.7664      2.00000
     69       0.9816      2.00000
     70       0.9816      2.00000
     71       1.2359      2.00000
     72       1.2359      2.00000
     73       4.6068      0.00000
     74       4.6068      0.00000
     75       5.9271      0.00000
     76       5.9271      0.00000
     77       6.1859      0.00000
     78       6.1859      0.00000
     79       6.9047      0.00000
     80       6.9047      0.00000
     81       7.2590      0.00000
     82       7.2590      0.00000
     83       7.6601      0.00000
     84       7.6601      0.00000
     85       7.8857      0.00000
     86       7.8857      0.00000
     87       8.0142      0.00000
     88       8.0142      0.00000
     89       8.4358      0.00000
     90       8.4358      0.00000
     91       8.5205      0.00000
     92       8.5205      0.00000
     93       8.5959      0.00000
     94       8.5959      0.00000
     95       9.2460      0.00000
     96       9.2485      0.00000

 k-point     4 :       0.3333    0.5000    0.0000
  band No.  band energies     occupation 
      1     -21.4242      2.00000
      2     -21.4242      2.00000
      3     -21.4181      2.00000
      4     -21.4181      2.00000
      5     -21.3938      2.00000
      6     -21.3938      2.00000
      7     -21.0267      2.00000
      8     -21.0267      2.00000
      9     -21.0082      2.00000
     10     -21.0082      2.00000
     11     -20.9995      2.00000
     12     -20.9995      2.00000
     13     -20.9813      2.00000
     14     -20.9813      2.00000
     15     -20.9687      2.00000
     16     -20.9687      2.00000
     17     -20.9534      2.00000
     18     -20.9534      2.00000
     19     -20.8987      2.00000
     20     -20.8987      2.00000
     21     -20.8928      2.00000
     22     -20.8928      2.00000
     23     -20.8888      2.00000
     24     -20.8888      2.00000
     25     -20.8852      2.00000
     26     -20.8852      2.00000
     27     -20.8698      2.00000
     28     -20.8698      2.00000
     29     -20.8522      2.00000
     30     -20.8522      2.00000
     31     -12.0900      2.00000
     32     -12.0900      2.00000
     33     -12.0857      2.00000
     34     -12.0857      2.00000
     35     -12.0793      2.00000
     36     -12.0793      2.00000
     37     -11.8646      2.00000
     38     -11.8646      2.00000
     39     -11.8552      2.00000
     40     -11.8552      2.00000
     41      -9.6858      2.00000
     42      -9.6858      2.00000
     43      -9.0537      2.00000
     44      -9.0537      2.00000
     45      -8.9561      2.00000
     46      -8.9561      2.00000
     47      -8.9376      2.00000
     48      -8.9376      2.00000
     49      -2.9133      2.00000
     50      -2.9133      2.00000
     51      -0.8356      2.00000
     52      -0.8356      2.00000
     53      -0.7007      2.00000
     54      -0.7007      2.00000
     55      -0.4457      2.00000
     56      -0.4457      2.00000
     57      -0.0938      2.00000
     58      -0.0938      2.00000
     59       0.1493      2.00000
     60       0.1493      2.00000
     61       0.2685      2.00000
     62       0.2685      2.00000
     63       0.6321      2.00000
     64       0.6321      2.00000
     65       0.7940      2.00000
     66       0.7940      2.00000
     67       0.8590      2.00000
     68       0.8590      2.00000
[...]
     32     -12.2412      2.00000
     33     -12.2401      2.00000
     34     -12.2394      2.00000
     35     -12.2331      2.00000
     36     -12.2324      2.00000
     37     -12.0379      2.00000
     38     -12.0373      2.00000
     39     -12.0283      2.00000
     40     -12.0273      2.00000
     41      -9.7972      2.00000
     42      -9.7495      2.00000
     43      -9.1884      2.00000
     44      -9.1707      2.00000
     45      -9.1512      2.00000
     46      -9.1212      2.00000
     47      -9.1051      2.00000
     48      -9.0673      2.00000
     49      -3.0923      2.00000
     50      -3.0490      2.00000
     51      -1.1305      2.00000
     52      -1.0643      2.00000
     53      -0.6914      2.00000
     54      -0.6130      2.00000
     55      -0.5917      2.00000
     56      -0.4741      2.00000
     57      -0.2644      2.00000
     58      -0.2446      2.00000
     59      -0.1095      2.00000
     60      -0.0477      2.00000
     61       0.3789      2.00000
     62       0.3856      2.00000
     63       0.5157      2.00000
     64       0.5882      2.00000
     65       0.6082      2.00000
     66       0.6782      2.00000
     67       0.7203      2.00000
     68       0.7701      2.00000
     69       0.8119      2.00000
     70       0.9112      2.00000
     71       0.9176      2.00000
     72       0.9407      2.00000
     73       4.1277      0.00000
     74       4.4814      0.00000
     75       5.0971      0.00000
     76       5.3523      0.00000
     77       5.4696      0.00000
     78       5.9547      0.00000
     79       6.1634      0.00000
     80       6.4866      0.00000
     81       6.5568      0.00000
     82       6.8946      0.00000
     83       7.1373      0.00000
     84       7.4284      0.00000
     85       7.5674      0.00000
     86       7.5798      0.00000
     87       7.7839      0.00000
     88       7.7998      0.00000
     89       8.0516      0.00000
     90       8.1579      0.00000
     91       8.2622      0.00000
     92       8.3190      0.00000
     93       8.5144      0.00000
     94       8.5793      0.00000
     95       8.8517      0.00000
     96       8.9185      0.00000

 k-point     7 :       0.0000    0.5000    0.5000
  band No.  band energies     occupation 
      1     -21.6473      2.00000
      2     -21.6473      2.00000
      3     -21.6414      2.00000
      4     -21.6414      2.00000
      5     -21.6176      2.00000
      6     -21.6176      2.00000
      7     -21.2510      2.00000
      8     -21.2510      2.00000
      9     -21.2333      2.00000
     10     -21.2333      2.00000
     11     -21.2225      2.00000
     12     -21.2225      2.00000
     13     -21.2020      2.00000
     14     -21.2020      2.00000
     15     -21.1863      2.00000
     16     -21.1863      2.00000
     17     -21.1687      2.00000
     18     -21.1687      2.00000
     19     -21.1198      2.00000
     20     -21.1198      2.00000
     21     -21.1144      2.00000
     22     -21.1144      2.00000
     23     -21.1084      2.00000
     24     -21.1084      2.00000
     25     -21.1053      2.00000
     26     -21.1053      2.00000
     27     -21.0899      2.00000
     28     -21.0899      2.00000
     29     -21.0745      2.00000
     30     -21.0745      2.00000
     31     -12.2428      2.00000
     32     -12.2428      2.00000
     33     -12.2396      2.00000
     34     -12.2396      2.00000
     35     -12.2345      2.00000
     36     -12.2345      2.00000
     37     -12.0375      2.00000
     38     -12.0375      2.00000
     39     -12.0277      2.00000
     40     -12.0277      2.00000
     41      -9.8227      2.00000
     42      -9.8227      2.00000
     43      -9.2280      2.00000
     44      -9.2280      2.00000
     45      -9.0622      2.00000
     46      -9.0622      2.00000
     47      -9.0464      2.00000
     48      -9.0464      2.00000
     49      -2.9353      2.00000
     50      -2.9353      2.00000
     51      -1.0756      2.00000
     52      -1.0756      2.00000
     53      -0.8260      2.00000
     54      -0.8260      2.00000
     55      -0.6203      2.00000
     56      -0.6203      2.00000
     57      -0.2140      2.00000
     58      -0.2140      2.00000
     59       0.0156      2.00000
     60       0.0156      2.00000
     61       0.1005      2.00000
     62       0.1005      2.00000
     63       0.4700      2.00000
     64       0.4700      2.00000
     65       0.6467      2.00000
     66       0.6467      2.00000
     67       0.7745      2.00000
     68       0.7745      2.00000
     69       0.8311      2.00000
     70       0.8311      2.00000
     71       0.9023      2.00000
     72       0.9023      2.00000
     73       4.6198      0.00000
     74       4.6198      0.00000
     75       5.4059      0.00000
     76       5.4059      0.00000
     77       6.2377      0.00000
     78       6.2377      0.00000
     79       6.5317      0.00000
     80       6.5317      0.00000
     81       6.8031      0.00000
     82       6.8031      0.00000
     83       7.0736      0.00000
     84       7.0736      0.00000
     85       7.6179      0.00000
     86       7.6179      0.00000
     87       7.6255      0.00000
     88       7.6255      0.00000
     89       7.8340      0.00000
     90       7.8340      0.00000
     91       8.0847      0.00000
     92       8.0847      0.00000
     93       8.6091      0.00000
     94       8.6091      0.00000
     95       8.8513      0.00000
     96       8.8513      0.00000

 k-point     8 :       0.3333    0.5000    0.5000
  band No.  band energies     occupation 
      1     -21.6473      2.00000
      2     -21.6473      2.00000
      3     -21.6415      2.00000
      4     -21.6415      2.00000
      5     -21.6176      2.00000
      6     -21.6176      2.00000
      7     -21.2511      2.00000
      8     -21.2511      2.00000
      9     -21.2334      2.00000
     10     -21.2334      2.00000
     11     -21.2225      2.00000
     12     -21.2225      2.00000
     13     -21.2020      2.00000
     14     -21.2020      2.00000
     15     -21.1861      2.00000
     16     -21.1861      2.00000
     17     -21.1684      2.00000
     18     -21.1684      2.00000
     19     -21.1212      2.00000
     20     -21.1212      2.00000
     21     -21.1142      2.00000
     22     -21.1142      2.00000
     23     -21.1084      2.00000
     24     -21.1084      2.00000
     25     -21.1054      2.00000
     26     -21.1054      2.00000
     27     -21.0904      2.00000
     28     -21.0904      2.00000
     29     -21.0735      2.00000
     30     -21.0735      2.00000
     31     -12.2422      2.00000
     32     -12.2422      2.00000
     33     -12.2400      2.00000
     34     -12.2400      2.00000
     35     -12.2326      2.00000
     36     -12.2326      2.00000
     37     -12.0376      2.00000
     38     -12.0376      2.00000
     39     -12.0278      2.00000
     40     -12.0278      2.00000
     41      -9.7588      2.00000
     42      -9.7588      2.00000
     43      -9.1880      2.00000
     44      -9.1880      2.00000
     45      -9.1408      2.00000
     46      -9.1408      2.00000
     47      -9.0939      2.00000
     48      -9.0939      2.00000
     49      -3.0174      2.00000
     50      -3.0174      2.00000
     51      -0.9536      2.00000
     52      -0.9536      2.00000
     53      -0.6732      2.00000
     54      -0.6732      2.00000
     55      -0.5256      2.00000
     56      -0.5256      2.00000
     57      -0.3036      2.00000
     58      -0.3036      2.00000
     59      -0.1447      2.00000
     60      -0.1447      2.00000
     61       0.2368      2.00000
     62       0.2368      2.00000
     63       0.5546      2.00000
     64       0.5546      2.00000
     65       0.5688      2.00000
     66       0.5688      2.00000
     67       0.7121      2.00000
     68       0.7121      2.00000
     69       0.7861      2.00000
     70       0.7861      2.00000
     71       0.9600      2.00000
     72       0.9600      2.00000
     73       4.6870      0.00000
     74       4.6870      0.00000
     75       5.4148      0.00000
     76       5.4148      0.00000
     77       6.0321      0.00000
     78       6.0321      0.00000
     79       6.3533      0.00000
     80       6.3533      0.00000
     81       6.6465      0.00000
     82       6.6465      0.00000
     83       7.2273      0.00000
     84       7.2273      0.00000
     85       7.3182      0.00000
     86       7.3182      0.00000
     87       7.8412      0.00000
     88       7.8412      0.00000
     89       8.0671      0.00000
     90       8.0671      0.00000
     91       8.2730      0.00000
     92       8.2730      0.00000
     93       8.6445      0.00000
     94       8.6445      0.00000
     95       8.7273      0.00000
     96       8.7273      0.00000


--------------------------------------------------------------------------------------------------------


 soft charge-density along one line, spin component           1
         0         1         2         3         4         5         6         7         8         9
 total charge-density along one line

 pseudopotential strength for first ion, spin component:           1
-25.219   0.002   0.003   2.497  -0.001  -0.001   0.004   0.013
  0.002 -25.207   0.000  -0.001   2.493  -0.000  -0.004  -0.013
  0.003   0.000 -25.228  -0.001  -0.000   2.501  -0.001  -0.002
  2.497  -0.001  -0.001   6.595   0.000   0.000  -0.000   0.000
 -0.001   2.493  -0.000   0.000   6.595   0.000   0.000  -0.000
 -0.001  -0.000   2.501   0.000   0.000   6.594   0.000   0.000
  0.004  -0.004  -0.001  -0.000   0.000   0.000   1.433   7.009
  0.013  -0.013  -0.002   0.000  -0.000   0.000   7.009  34.045
 total augmentation occupancy for first ion, spin component:           1
  2.001  -0.000  -0.000  -0.000  -0.000  -0.000  -0.014   0.005
 -0.000   2.001   0.000  -0.000  -0.002  -0.000   0.014  -0.005
 -0.000   0.000   2.001  -0.000  -0.000   0.001   0.002  -0.001
 -0.000  -0.000  -0.000   0.024   0.001   0.001  -0.007   0.000
 -0.000  -0.002  -0.000   0.001   0.026   0.000   0.006  -0.000
 -0.000  -0.000   0.001   0.001   0.000   0.017   0.001  -0.000
 -0.014   0.014   0.002  -0.007   0.006   0.001   0.589  -0.001
  0.005  -0.005  -0.001   0.000  -0.000  -0.000  -0.001   0.000


------------------------ aborting loop because EDIFF is reached ----------------------------------------


    CHARGE:  cpu time      0.0361: real time      0.0364
    FORLOC:  cpu time      0.0019: real time      0.0019
    FORNL :  cpu time      0.1928: real time      0.1928
    STRESS:  cpu time      0.5759: real time      0.5761
    FORCOR:  cpu time      0.0139: real time      0.0139
    FORHAR:  cpu time      0.0044: real time      0.0044
    MIXING:  cpu time      0.0004: real time      0.0004
    OFIELD:  cpu time      0.0000: real time      0.0000

  FORCE on cell =-STRESS in cart. coord.  units (eV):
  Direction    XX          YY          ZZ          XY          YZ          ZX
  --------------------------------------------------------------------------------------
  Alpha Z   235.47670   235.47670   235.47670
  Ewald   -2444.21310 -2449.07748 -2507.15975     0.00000    -0.00000    21.90317
  Hartree  1321.80495  1293.30568  1235.34549    -0.00000    -0.00000    15.43312
  E(xc)    -682.47615  -682.38767  -682.34657     0.00000     0.00000     0.02621
  Local    -802.58281  -772.45336  -654.72404    -0.00000    -0.00000   -37.71613
  n-local   428.78294   433.85935   434.30430     0.00000     0.00000     0.05076
  augment   600.35602   601.78113   601.77498    -0.00000    -0.00000     0.11016
  Kinetic  1342.96713  1339.41755  1337.20787    -0.00000    -0.00000     0.20365
  Fock        0.00000     0.00000     0.00000     0.00000     0.00000     0.00000
  -------------------------------------------------------------------------------------
  Total       0.11569    -0.07810    -0.12102     0.00000    -0.00000     0.01095
  in kB       0.38957    -0.26299    -0.40752     0.00000    -0.00000     0.03687
  external pressure =       -0.09 kB  Pullay stress =        0.00 kB


 VOLUME and BASIS-vectors are now :
 -----------------------------------------------------------------------------
  energy-cutoff  :      400.00
  volume of cell :      475.79
      direct lattice vectors                 reciprocal lattice vectors
     6.833068891 -0.000000000 -0.127247023     0.146348793  0.000000000  0.000089461
    -0.000000000  8.835925276  0.000000000     0.000000000  0.113174339 -0.000000000
    -0.004817206  0.000000000  7.880484692     0.002363109 -0.000000000  0.126897193

  length of vectors
     6.834253601  8.835925276  7.880486165     0.146348820  0.113174339  0.126919194


 FORCES acting on ions
    electron-ion (+dipol)            ewald-force                    non-local-force                 convergence-correction
 -----------------------------------------------------------------------------------------------
   -.260E+02 -.318E+02 0.281E+02   0.262E+02 0.308E+02 -.271E+02   -.124E+00 0.103E+01 -.995E+00   -.113E-03 0.267E-03 -.825E-03
   0.260E+02 -.318E+02 -.281E+02   -.262E+02 0.308E+02 0.271E+02   0.124E+00 0.103E+01 0.995E+00   0.113E-03 0.267E-03 0.825E-03
   0.260E+02 0.318E+02 -.281E+02   -.262E+02 -.308E+02 0.271E+02   0.124E+00 -.103E+01 0.995E+00   0.113E-03 -.267E-03 0.825E-03
   -.260E+02 0.318E+02 0.281E+02   0.262E+02 -.308E+02 -.271E+02   -.124E+00 -.103E+01 -.995E+00   -.113E-03 -.267E-03 -.825E-03
   0.196E+02 -.212E-11 0.560E+02   -.188E+02 -.360E-13 -.526E+02   -.855E+00 -.136E-17 -.337E+01   -.872E-03 0.977E-13 -.931E-03
   -.196E+02 0.127E-11 -.560E+02   0.188E+02 -.671E-14 0.526E+02   0.855E+00 0.136E-17 0.337E+01   0.872E-03 -.396E-13 0.931E-03
   -.335E+02 0.327E-11 -.481E+02   0.332E+02 0.346E-13 0.466E+02   0.213E+00 0.671E-18 0.145E+01   0.538E-03 0.448E-12 0.156E-02
   0.335E+02 0.199E-11 0.481E+02   -.332E+02 -.133E-13 -.466E+02   -.213E+00 -.671E-18 -.145E+01   -.538E-03 -.146E-12 -.156E-02
   0.232E-12 0.321E-12 0.581E-11   0.107E-13 0.142E-13 0.355E-14   0.260E-24 -.104E-24 0.349E-24   -.290E-12 -.663E-12 0.259E-13
   0.233E-12 0.388E-12 0.581E-11   0.355E-14 -.213E-13 -.711E-14   -.928E-24 -.423E-25 -.362E-24   -.341E-12 0.629E-12 0.152E-12
   -.119E+02 -.772E-11 -.156E+02   0.113E+02 -.531E-13 0.153E+02   0.611E+00 -.140E-18 0.353E+00   -.756E-03 -.511E-12 0.135E-02
   0.119E+02 -.544E-14 0.156E+02   -.113E+02 0.310E-13 -.153E+02   -.611E+00 0.140E-18 -.353E+00   0.756E-03 0.157E-12 -.135E-02
   -.508E+02 0.229E-12 0.894E+02   0.523E+02 -.137E-15 -.918E+02   -.152E+01 0.211E-17 0.238E+01   0.507E-03 -.619E-14 -.190E-02
   0.508E+02 -.191E-12 -.894E+02   -.523E+02 0.956E-14 0.918E+02   0.152E+01 -.211E-17 -.238E+01   -.507E-03 0.115E-12 0.190E-02
   0.491E+02 0.737E+02 0.453E+02   -.504E+02 -.756E+02 -.465E+02   0.133E+01 0.187E+01 0.112E+01   -.607E-03 -.142E-02 -.945E-03
   -.491E+02 0.737E+02 -.453E+02   0.504E+02 -.756E+02 0.465E+02   -.133E+01 0.187E+01 -.112E+01   0.607E-03 -.142E-02 0.945E-03
   -.491E+02 -.737E+02 -.453E+02   0.504E+02 0.756E+02 0.465E+02   -.133E+01 -.187E+01 -.112E+01   0.607E-03 0.142E-02 0.945E-03
   0.491E+02 -.737E+02 0.453E+02   -.504E+02 0.756E+02 -.465E+02   0.133E+01 -.187E+01 0.112E+01   -.607E-03 0.142E-02 -.945E-03
   -.915E+02 -.237E-12 0.682E+01   0.944E+02 0.554E-14 -.668E+01   -.286E+01 0.147E-17 -.142E+00   0.956E-03 0.502E-13 -.472E-03
   0.915E+02 -.289E-13 -.682E+01   -.944E+02 0.122E-13 0.668E+01   0.286E+01 -.147E-17 0.142E+00   -.956E-03 -.805E-13 0.472E-03
 -----------------------------------------------------------------------------------------------
   0.101E-10 -.163E-11 0.249E-09   0.426E-13 0.603E-13 -.764E-13   0.888E-15 -.888E-15 0.000E+00   -.679E-13 -.186E-12 -.565E-12


 POSITION                                       TOTAL-FORCE (eV/Angst)
 -----------------------------------------------------------------------------------
      4.48216      4.59612      5.15663        -0.000604      0.002512      0.006064
      2.34609      0.17816      2.59661         0.000604      0.002512     -0.006064
      2.34609      4.23980      2.59661         0.000604     -0.002512     -0.006064
      4.48216      8.65776      5.15663        -0.000604     -0.002512      0.006064
      6.65923      2.20898      4.04298         0.008030     -0.000000      0.026091
      0.16902      6.62694      3.71026        -0.008030     -0.000000     -0.026091
      4.57152      2.20898      1.18201        -0.003762     -0.000000     -0.000035
      2.25673      6.62694      6.57123         0.003762     -0.000000      0.000035
     -0.00000     -0.00000     -0.00000        -0.000000     -0.000000     -0.000000
     -0.00000      4.41796      0.00000        -0.000000     -0.000000     -0.000000
      4.36234      6.62694      1.30915        -0.008456     -0.000000     -0.014628
      2.46591      2.20898      6.44409         0.008456     -0.000000      0.014628
      5.19276      6.62694      6.83835        -0.016285     -0.000000      0.002475
      1.63549      2.20898      0.91489         0.016285     -0.000000     -0.002475
      1.59011      0.16793      5.26341         0.003810     -0.012784     -0.017346
      5.23814      4.58589      2.48983        -0.003810     -0.012784      0.017346
      5.23814      8.66799      2.48983        -0.003810      0.012784      0.017346
      1.59011      4.25003      5.26341         0.003810      0.012784     -0.017346
      4.97405      2.20898      6.38106        -0.013679     -0.000000     -0.012049
      1.85420      6.62694      1.37218         0.013679     -0.000000      0.012049
 -----------------------------------------------------------------------------------
    total drift:                                0.000000     -0.000000      0.000000


--------------------------------------------------------------------------------------------------------



  FREE ENERGIE OF THE ION-ELECTRON SYSTEM (eV)
  ---------------------------------------------------
  free  energy   TOTEN  =       -71.70084812 eV

  energy  without entropy=      -71.70084812  energy(sigma->0) =      -71.70084812

 d Force = 0.1420159E-02[-0.237E-03, 0.308E-02]  d Energy = 0.1821016E-02-0.401E-03
 d Force =-0.5826589E+01[-0.587E+01,-0.578E+01]  d Ewald  =-0.1513326E+02 0.931E+01


--------------------------------------------------------------------------------------------------------


    POTLOK:  cpu time      0.0165: real time      0.0165


--------------------------------------------------------------------------------------------------------




--------------------------------------------------------------------------------------------------------


  
 reached required accuracy - stopping structural energy minimisation
     LOOP+:  cpu time      8.3188: real time      8.3524
    4ORBIT:  cpu time      0.0000: real time      0.0000

 total amount of memory used by VASP MPI-rank0    41606. kBytes
=======================================================================

   base      :      30000. kBytes
   nonlr-proj:       2643. kBytes
   fftplans  :       1041. kBytes
   grid      :       4294. kBytes
   one-center:        311. kBytes
   wavefun   :       3317. kBytes

  
  
 General timing and accounting informations for this job:
 ========================================================
  
                  Total CPU time used (sec):       65.542
                            User time (sec):       62.005
                          System time (sec):        3.537
                         Elapsed time (sec):       67.504
  
                   Maximum memory used (kb):      139064.
                   Average memory used (kb):          N/A
  
                          Minor page faults:       643862
                          Major page faults:          254
                 Voluntary context switches:         1641
