phonopy:
  version: 2.16.3
  frequency_unit_conversion_factor: 15.633302
  symmetry_tolerance: 1.00000e-05
  configuration:
    create_displacements: ".true."
    dim: "2 2 2"

physical_unit:
  atomic_mass: "AMU"
  length: "angstrom"
  force_constants: "eV/angstrom^2"

space_group:
  type: "Fm-3m"
  number: 225
  Hall_symbol: "-F 4 2 3"

supercell_matrix:
- [   2,   0,   0 ]
- [   0,   2,   0 ]
- [   0,   0,   2 ]

primitive_cell:
  lattice:
  - [     6.569113430860607,     0.000000000000000,     0.000000000000000 ] # a
  - [     0.000000000000001,     6.569113430860607,     0.000000000000000 ] # b
  - [     0.000000000000000,     0.000000000000000,     6.569113430860607 ] # c
  points:
  - symbol: Na # 1
    coordinates: [  0.250000000000000,  0.250000000000000,  0.250000000000000 ]
    mass: 22.989769
  - symbol: Na # 2
    coordinates: [  0.250000000000000,  0.750000000000000,  0.250000000000000 ]
    mass: 22.989769
  - symbol: Na # 3
    coordinates: [  0.250000000000000,  0.750000000000000,  0.750000000000000 ]
    mass: 22.989769
  - symbol: Na # 4
    coordinates: [  0.250000000000000,  0.250000000000000,  0.750000000000000 ]
    mass: 22.989769
  - symbol: Na # 5
    coordinates: [  0.750000000000000,  0.250000000000000,  0.750000000000000 ]
    mass: 22.989769
  - symbol: Na # 6
    coordinates: [  0.750000000000000,  0.750000000000000,  0.750000000000000 ]
    mass: 22.989769
  - symbol: Na # 7
    coordinates: [  0.750000000000000,  0.750000000000000,  0.250000000000000 ]
    mass: 22.989769
  - symbol: Na # 8
    coordinates: [  0.750000000000000,  0.250000000000000,  0.250000000000000 ]
    mass: 22.989769
  - symbol: S  # 9
    coordinates: [  0.000000000000000,  0.000000000000000,  0.000000000000000 ]
    mass: 32.065000
  - symbol: S  # 10
    coordinates: [  0.000000000000000,  0.500000000000000,  0.500000000000000 ]
    mass: 32.065000
  - symbol: S  # 11
    coordinates: [  0.500000000000000,  0.000000000000000,  0.500000000000000 ]
    mass: 32.065000
  - symbol: S  # 12
    coordinates: [  0.500000000000000,  0.500000000000000,  0.000000000000000 ]
    mass: 32.065000
  reciprocal_lattice: # without 2pi
  - [     0.152227543415854,    -0.000000000000000,     0.000000000000000 ] # a*
  - [     0.000000000000000,     0.152227543415854,     0.000000000000000 ] # b*
  - [    -0.000000000000000,    -0.000000000000000,     0.152227543415854 ] # c*

unit_cell:
  lattice:
  - [     6.569113430860607,     0.000000000000000,     0.000000000000000 ] # a
  - [     0.000000000000001,     6.569113430860607,     0.000000000000000 ] # b
  - [     0.000000000000000,     0.000000000000000,     6.569113430860607 ] # c
  points:
  - symbol: Na # 1
    coordinates: [  0.250000000000000,  0.250000000000000,  0.250000000000000 ]
    mass: 22.989769
    reduced_to: 1
  - symbol: Na # 2
    coordinates: [  0.250000000000000,  0.750000000000000,  0.250000000000000 ]
    mass: 22.989769
    reduced_to: 2
  - symbol: Na # 3
    coordinates: [  0.250000000000000,  0.750000000000000,  0.750000000000000 ]
    mass: 22.989769
    reduced_to: 3
  - symbol: Na # 4
    coordinates: [  0.250000000000000,  0.250000000000000,  0.750000000000000 ]
    mass: 22.989769
    reduced_to: 4
  - symbol: Na # 5
    coordinates: [  0.750000000000000,  0.250000000000000,  0.750000000000000 ]
    mass: 22.989769
    reduced_to: 5
  - symbol: Na # 6
    coordinates: [  0.750000000000000,  0.750000000000000,  0.750000000000000 ]
    mass: 22.989769
    reduced_to: 6
  - symbol: Na # 7
    coordinates: [  0.750000000000000,  0.750000000000000,  0.250000000000000 ]
    mass: 22.989769
    reduced_to: 7
  - symbol: Na # 8
    coordinates: [  0.750000000000000,  0.250000000000000,  0.250000000000000 ]
    mass: 22.989769
    reduced_to: 8
  - symbol: S  # 9
    coordinates: [  0.000000000000000, -0.000000000000000,  0.000000000000000 ]
    mass: 32.065000
    reduced_to: 9
  - symbol: S  # 10
    coordinates: [  0.000000000000000,  0.500000000000000,  0.500000000000000 ]
    mass: 32.065000
    reduced_to: 10
  - symbol: S  # 11
    coordinates: [  0.500000000000000, -0.000000000000000,  0.500000000000000 ]
    mass: 32.065000
    reduced_to: 11
  - symbol: S  # 12
    coordinates: [  0.500000000000000,  0.500000000000000,  0.000000000000000 ]
    mass: 32.065000
    reduced_to: 12

supercell:
  lattice:
  - [    13.138226861721213,     0.000000000000000,     0.000000000000001 ] # a
  - [     0.000000000000002,    13.138226861721213,     0.000000000000001 ] # b
  - [     0.000000000000000,     0.000000000000000,    13.138226861721213 ] # c
  points:
  - symbol: Na # 1
    coordinates: [  0.125000000000000,  0.125000000000000,  0.125000000000000 ]
    mass: 22.989769
    reduced_to: 1
  - symbol: Na # 2
    coordinates: [  0.625000000000000,  0.125000000000000,  0.125000000000000 ]
    mass: 22.989769
    reduced_to: 1
  - symbol: Na # 3
    coordinates: [  0.125000000000000,  0.625000000000000,  0.125000000000000 ]
    mass: 22.989769
    reduced_to: 1
  - symbol: Na # 4
    coordinates: [  0.625000000000000,  0.625000000000000,  0.125000000000000 ]
    mass: 22.989769
    reduced_to: 1
  - symbol: Na # 5
    coordinates: [  0.125000000000000,  0.125000000000000,  0.625000000000000 ]
    mass: 22.989769
    reduced_to: 1
  - symbol: Na # 6
    coordinates: [  0.625000000000000,  0.125000000000000,  0.625000000000000 ]
    mass: 22.989769
    reduced_to: 1
  - symbol: Na # 7
    coordinates: [  0.125000000000000,  0.625000000000000,  0.625000000000000 ]
    mass: 22.989769
    reduced_to: 1
  - symbol: Na # 8
    coordinates: [  0.625000000000000,  0.625000000000000,  0.625000000000000 ]
    mass: 22.989769
    reduced_to: 1
  - symbol: Na # 9
    coordinates: [  0.125000000000000,  0.375000000000000,  0.125000000000000 ]
    mass: 22.989769
    reduced_to: 9
  - symbol: Na # 10
    coordinates: [  0.625000000000000,  0.375000000000000,  0.125000000000000 ]
    mass: 22.989769
    reduced_to: 9
  - symbol: Na # 11
    coordinates: [  0.125000000000000,  0.875000000000000,  0.125000000000000 ]
    mass: 22.989769
    reduced_to: 9
  - symbol: Na # 12
    coordinates: [  0.625000000000000,  0.875000000000000,  0.125000000000000 ]
    mass: 22.989769
    reduced_to: 9
  - symbol: Na # 13
    coordinates: [  0.125000000000000,  0.375000000000000,  0.625000000000000 ]
    mass: 22.989769
    reduced_to: 9
  - symbol: Na # 14
    coordinates: [  0.625000000000000,  0.375000000000000,  0.625000000000000 ]
    mass: 22.989769
    reduced_to: 9
  - symbol: Na # 15
    coordinates: [  0.125000000000000,  0.875000000000000,  0.625000000000000 ]
    mass: 22.989769
    reduced_to: 9
  - symbol: Na # 16
    coordinates: [  0.625000000000000,  0.875000000000000,  0.625000000000000 ]
    mass: 22.989769
    reduced_to: 9
  - symbol: Na # 17
    coordinates: [  0.125000000000000,  0.375000000000000,  0.375000000000000 ]
    mass: 22.989769
    reduced_to: 17
  - symbol: Na # 18
    coordinates: [  0.625000000000000,  0.375000000000000,  0.375000000000000 ]
    mass: 22.989769
    reduced_to: 17
  - symbol: Na # 19
    coordinates: [  0.125000000000000,  0.875000000000000,  0.375000000000000 ]
    mass: 22.989769
    reduced_to: 17
  - symbol: Na # 20
    coordinates: [  0.625000000000000,  0.875000000000000,  0.375000000000000 ]
    mass: 22.989769
    reduced_to: 17
  - symbol: Na # 21
    coordinates: [  0.125000000000000,  0.375000000000000,  0.875000000000000 ]
    mass: 22.989769
    reduced_to: 17
  - symbol: Na # 22
    coordinates: [  0.625000000000000,  0.375000000000000,  0.875000000000000 ]
    mass: 22.989769
    reduced_to: 17
  - symbol: Na # 23
    coordinates: [  0.125000000000000,  0.875000000000000,  0.875000000000000 ]
    mass: 22.989769
    reduced_to: 17
  - symbol: Na # 24
    coordinates: [  0.625000000000000,  0.875000000000000,  0.875000000000000 ]
    mass: 22.989769
    reduced_to: 17
  - symbol: Na # 25
    coordinates: [  0.125000000000000,  0.125000000000000,  0.375000000000000 ]
    mass: 22.989769
    reduced_to: 25
  - symbol: Na # 26
    coordinates: [  0.625000000000000,  0.125000000000000,  0.375000000000000 ]
    mass: 22.989769
    reduced_to: 25
  - symbol: Na # 27
    coordinates: [  0.125000000000000,  0.625000000000000,  0.375000000000000 ]
    mass: 22.989769
    reduced_to: 25
  - symbol: Na # 28
    coordinates: [  0.625000000000000,  0.625000000000000,  0.375000000000000 ]
    mass: 22.989769
    reduced_to: 25
  - symbol: Na # 29
    coordinates: [  0.125000000000000,  0.125000000000000,  0.875000000000000 ]
    mass: 22.989769
    reduced_to: 25
  - symbol: Na # 30
    coordinates: [  0.625000000000000,  0.125000000000000,  0.875000000000000 ]
    mass: 22.989769
    reduced_to: 25
  - symbol: Na # 31
    coordinates: [  0.125000000000000,  0.625000000000000,  0.875000000000000 ]
    mass: 22.989769
    reduced_to: 25
  - symbol: Na # 32
    coordinates: [  0.625000000000000,  0.625000000000000,  0.875000000000000 ]
    mass: 22.989769
    reduced_to: 25
  - symbol: Na # 33
    coordinates: [  0.375000000000000,  0.125000000000000,  0.375000000000000 ]
    mass: 22.989769
    reduced_to: 33
  - symbol: Na # 34
    coordinates: [  0.875000000000000,  0.125000000000000,  0.375000000000000 ]
    mass: 22.989769
    reduced_to: 33
  - symbol: Na # 35
    coordinates: [  0.375000000000000,  0.625000000000000,  0.375000000000000 ]
    mass: 22.989769
    reduced_to: 33
  - symbol: Na # 36
    coordinates: [  0.875000000000000,  0.625000000000000,  0.375000000000000 ]
    mass: 22.989769
    reduced_to: 33
  - symbol: Na # 37
    coordinates: [  0.375000000000000,  0.125000000000000,  0.875000000000000 ]
    mass: 22.989769
    reduced_to: 33
  - symbol: Na # 38
    coordinates: [  0.875000000000000,  0.125000000000000,  0.875000000000000 ]
    mass: 22.989769
    reduced_to: 33
  - symbol: Na # 39
    coordinates: [  0.375000000000000,  0.625000000000000,  0.875000000000000 ]
    mass: 22.989769
    reduced_to: 33
  - symbol: Na # 40
    coordinates: [  0.875000000000000,  0.625000000000000,  0.875000000000000 ]
    mass: 22.989769
    reduced_to: 33
  - symbol: Na # 41
    coordinates: [  0.375000000000000,  0.375000000000000,  0.375000000000000 ]
    mass: 22.989769
    reduced_to: 41
  - symbol: Na # 42
    coordinates: [  0.875000000000000,  0.375000000000000,  0.375000000000000 ]
    mass: 22.989769
    reduced_to: 41
  - symbol: Na # 43
    coordinates: [  0.375000000000000,  0.875000000000000,  0.375000000000000 ]
    mass: 22.989769
    reduced_to: 41
  - symbol: Na # 44
    coordinates: [  0.875000000000000,  0.875000000000000,  0.375000000000000 ]
    mass: 22.989769
    reduced_to: 41
  - symbol: Na # 45
    coordinates: [  0.375000000000000,  0.375000000000000,  0.875000000000000 ]
    mass: 22.989769
    reduced_to: 41
  - symbol: Na # 46
    coordinates: [  0.875000000000000,  0.375000000000000,  0.875000000000000 ]
    mass: 22.989769
    reduced_to: 41
  - symbol: Na # 47
    coordinates: [  0.375000000000000,  0.875000000000000,  0.875000000000000 ]
    mass: 22.989769
    reduced_to: 41
  - symbol: Na # 48
    coordinates: [  0.875000000000000,  0.875000000000000,  0.875000000000000 ]
    mass: 22.989769
    reduced_to: 41
  - symbol: Na # 49
    coordinates: [  0.375000000000000,  0.375000000000000,  0.125000000000000 ]
    mass: 22.989769
    reduced_to: 49
  - symbol: Na # 50
    coordinates: [  0.875000000000000,  0.375000000000000,  0.125000000000000 ]
    mass: 22.989769
    reduced_to: 49
  - symbol: Na # 51
    coordinates: [  0.375000000000000,  0.875000000000000,  0.125000000000000 ]
    mass: 22.989769
    reduced_to: 49
  - symbol: Na # 52
    coordinates: [  0.875000000000000,  0.875000000000000,  0.125000000000000 ]
    mass: 22.989769
    reduced_to: 49
  - symbol: Na # 53
    coordinates: [  0.375000000000000,  0.375000000000000,  0.625000000000000 ]
    mass: 22.989769
    reduced_to: 49
  - symbol: Na # 54
    coordinates: [  0.875000000000000,  0.375000000000000,  0.625000000000000 ]
    mass: 22.989769
    reduced_to: 49
  - symbol: Na # 55
    coordinates: [  0.375000000000000,  0.875000000000000,  0.625000000000000 ]
    mass: 22.989769
    reduced_to: 49
  - symbol: Na # 56
    coordinates: [  0.875000000000000,  0.875000000000000,  0.625000000000000 ]
    mass: 22.989769
    reduced_to: 49
  - symbol: Na # 57
    coordinates: [  0.375000000000000,  0.125000000000000,  0.125000000000000 ]
    mass: 22.989769
    reduced_to: 57
  - symbol: Na # 58
    coordinates: [  0.875000000000000,  0.125000000000000,  0.125000000000000 ]
    mass: 22.989769
    reduced_to: 57
  - symbol: Na # 59
    coordinates: [  0.375000000000000,  0.625000000000000,  0.125000000000000 ]
    mass: 22.989769
    reduced_to: 57
  - symbol: Na # 60
    coordinates: [  0.875000000000000,  0.625000000000000,  0.125000000000000 ]
    mass: 22.989769
    reduced_to: 57
  - symbol: Na # 61
    coordinates: [  0.375000000000000,  0.125000000000000,  0.625000000000000 ]
    mass: 22.989769
    reduced_to: 57
  - symbol: Na # 62
    coordinates: [  0.875000000000000,  0.125000000000000,  0.625000000000000 ]
    mass: 22.989769
    reduced_to: 57
  - symbol: Na # 63
    coordinates: [  0.375000000000000,  0.625000000000000,  0.625000000000000 ]
    mass: 22.989769
    reduced_to: 57
  - symbol: Na # 64
    coordinates: [  0.875000000000000,  0.625000000000000,  0.625000000000000 ]
    mass: 22.989769
    reduced_to: 57
  - symbol: S  # 65
    coordinates: [  0.000000000000000,  0.000000000000000,  0.000000000000000 ]
    mass: 32.065000
    reduced_to: 65
  - symbol: S  # 66
    coordinates: [  0.500000000000000,  0.000000000000000,  0.000000000000000 ]
    mass: 32.065000
    reduced_to: 65
  - symbol: S  # 67
    coordinates: [  0.000000000000000,  0.500000000000000,  0.000000000000000 ]
    mass: 32.065000
    reduced_to: 65
  - symbol: S  # 68
    coordinates: [  0.500000000000000,  0.500000000000000,  0.000000000000000 ]
    mass: 32.065000
    reduced_to: 65
  - symbol: S  # 69
    coordinates: [  0.000000000000000,  0.000000000000000,  0.500000000000000 ]
    mass: 32.065000
    reduced_to: 65
  - symbol: S  # 70
    coordinates: [  0.500000000000000,  0.000000000000000,  0.500000000000000 ]
    mass: 32.065000
    reduced_to: 65
  - symbol: S  # 71
    coordinates: [  0.000000000000000,  0.500000000000000,  0.500000000000000 ]
    mass: 32.065000
    reduced_to: 65
  - symbol: S  # 72
    coordinates: [  0.500000000000000,  0.500000000000000,  0.500000000000000 ]
    mass: 32.065000
    reduced_to: 65
  - symbol: S  # 73
    coordinates: [  0.000000000000000,  0.250000000000000,  0.250000000000000 ]
    mass: 32.065000
    reduced_to: 73
  - symbol: S  # 74
    coordinates: [  0.500000000000000,  0.250000000000000,  0.250000000000000 ]
    mass: 32.065000
    reduced_to: 73
  - symbol: S  # 75
    coordinates: [  0.000000000000000,  0.750000000000000,  0.250000000000000 ]
    mass: 32.065000
    reduced_to: 73
  - symbol: S  # 76
    coordinates: [  0.500000000000000,  0.750000000000000,  0.250000000000000 ]
    mass: 32.065000
    reduced_to: 73
  - symbol: S  # 77
    coordinates: [  0.000000000000000,  0.250000000000000,  0.750000000000000 ]
    mass: 32.065000
    reduced_to: 73
  - symbol: S  # 78
    coordinates: [  0.500000000000000,  0.250000000000000,  0.750000000000000 ]
    mass: 32.065000
    reduced_to: 73
  - symbol: S  # 79
    coordinates: [  0.000000000000000,  0.750000000000000,  0.750000000000000 ]
    mass: 32.065000
    reduced_to: 73
  - symbol: S  # 80
    coordinates: [  0.500000000000000,  0.750000000000000,  0.750000000000000 ]
    mass: 32.065000
    reduced_to: 73
  - symbol: S  # 81
    coordinates: [  0.250000000000000,  0.000000000000000,  0.250000000000000 ]
    mass: 32.065000
    reduced_to: 81
  - symbol: S  # 82
    coordinates: [  0.750000000000000,  0.000000000000000,  0.250000000000000 ]
    mass: 32.065000
    reduced_to: 81
  - symbol: S  # 83
    coordinates: [  0.250000000000000,  0.500000000000000,  0.250000000000000 ]
    mass: 32.065000
    reduced_to: 81
  - symbol: S  # 84
    coordinates: [  0.750000000000000,  0.500000000000000,  0.250000000000000 ]
    mass: 32.065000
    reduced_to: 81
  - symbol: S  # 85
    coordinates: [  0.250000000000000,  0.000000000000000,  0.750000000000000 ]
    mass: 32.065000
    reduced_to: 81
  - symbol: S  # 86
    coordinates: [  0.750000000000000,  0.000000000000000,  0.750000000000000 ]
    mass: 32.065000
    reduced_to: 81
  - symbol: S  # 87
    coordinates: [  0.250000000000000,  0.500000000000000,  0.750000000000000 ]
    mass: 32.065000
    reduced_to: 81
  - symbol: S  # 88
    coordinates: [  0.750000000000000,  0.500000000000000,  0.750000000000000 ]
    mass: 32.065000
    reduced_to: 81
  - symbol: S  # 89
    coordinates: [  0.250000000000000,  0.250000000000000,  0.000000000000000 ]
    mass: 32.065000
    reduced_to: 89
  - symbol: S  # 90
    coordinates: [  0.750000000000000,  0.250000000000000,  0.000000000000000 ]
    mass: 32.065000
    reduced_to: 89
  - symbol: S  # 91
    coordinates: [  0.250000000000000,  0.750000000000000,  0.000000000000000 ]
    mass: 32.065000
    reduced_to: 89
  - symbol: S  # 92
    coordinates: [  0.750000000000000,  0.750000000000000,  0.000000000000000 ]
    mass: 32.065000
    reduced_to: 89
  - symbol: S  # 93
    coordinates: [  0.250000000000000,  0.250000000000000,  0.500000000000000 ]
    mass: 32.065000
    reduced_to: 89
  - symbol: S  # 94
    coordinates: [  0.750000000000000,  0.250000000000000,  0.500000000000000 ]
    mass: 32.065000
    reduced_to: 89
  - symbol: S  # 95
    coordinates: [  0.250000000000000,  0.750000000000000,  0.500000000000000 ]
    mass: 32.065000
    reduced_to: 89
  - symbol: S  # 96
    coordinates: [  0.750000000000000,  0.750000000000000,  0.500000000000000 ]
    mass: 32.065000
    reduced_to: 89

displacements:
- atom:    1
  displacement:
    [   0.0100000000000000,  0.0000000000000000,  0.0000000000000000 ]
- atom:   65
  displacement:
    [   0.0100000000000000,  0.0000000000000000,  0.0000000000000000 ]
