   3   3   0   0
  0.2753758E+02  0.5086856E-09  0.5086856E-09  0.3686528E-09  0.1500000E-16
   1.0000000000000000E-004
  CAR 
 unknown system                          
     17.68229006    -23.12664660  301      3.86343354      1.00000000
    -23.127  0.0000E+00  0.0000E+00
    -22.991  0.0000E+00  0.0000E+00
    -22.855  0.0000E+00  0.0000E+00
    -22.719  0.0000E+00  0.0000E+00
    -22.583  0.0000E+00  0.0000E+00
    -22.446  0.0000E+00  0.0000E+00
    -22.310  0.0000E+00  0.0000E+00
    -22.174  0.0000E+00  0.0000E+00
    -22.038  0.0000E+00  0.0000E+00
    -21.902  0.0000E+00  0.0000E+00
    -21.766  0.0000E+00  0.0000E+00
    -21.630  0.0000E+00  0.0000E+00
    -21.494  0.1378E-10  0.1875E-11
    -21.358  0.1422E-02  0.1934E-03
    -21.222  0.5007E+00  0.6831E-01
    -21.086  0.1021E+00  0.8219E-01
    -20.950  0.5423E-06  0.8219E-01
    -20.814  0.0000E+00  0.8219E-01
    -20.678  0.0000E+00  0.8219E-01
    -20.542  0.0000E+00  0.8219E-01
    -20.406  0.0000E+00  0.8219E-01
    -20.270  0.0000E+00  0.8219E-01
    -20.134  0.0000E+00  0.8219E-01
    -19.998  0.0000E+00  0.8219E-01
    -19.862  0.0000E+00  0.8219E-01
    -19.726  0.0000E+00  0.8219E-01
    -19.590  0.0000E+00  0.8219E-01
    -19.454  0.0000E+00  0.8219E-01
    -19.318  0.0000E+00  0.8219E-01
    -19.182  0.0000E+00  0.8219E-01
    -19.046  0.0000E+00  0.8219E-01
    -18.910  0.0000E+00  0.8219E-01
    -18.774  0.0000E+00  0.8219E-01
    -18.638  0.0000E+00  0.8219E-01
    -18.502  0.0000E+00  0.8219E-01
    -18.366  0.3744E-12  0.8219E-01
    -18.230  0.2701E-03  0.8223E-01
    -18.094  0.2969E+00  0.1226E+00
    -17.958  0.5309E+00  0.1948E+00
    -17.821  0.1789E+00  0.2192E+00
    -17.685  0.5419E-04  0.2192E+00
    -17.549  0.7535E-13  0.2192E+00
    -17.413  0.0000E+00  0.2192E+00
    -17.277  0.0000E+00  0.2192E+00
    -17.141  0.0000E+00  0.2192E+00
    -17.005  0.0000E+00  0.2192E+00
    -16.869  0.0000E+00  0.2192E+00
    -16.733  0.0000E+00  0.2192E+00
    -16.597  0.0000E+00  0.2192E+00
    -16.461  0.0000E+00  0.2192E+00
    -16.325  0.0000E+00  0.2192E+00
    -16.189  0.0000E+00  0.2192E+00
    -16.053  0.0000E+00  0.2192E+00
    -15.917  0.0000E+00  0.2192E+00
    -15.781  0.0000E+00  0.2192E+00
    -15.645  0.0000E+00  0.2192E+00
    -15.509  0.0000E+00  0.2192E+00
    -15.373  0.0000E+00  0.2192E+00
    -15.237  0.0000E+00  0.2192E+00
    -15.101  0.0000E+00  0.2192E+00
    -14.965  0.0000E+00  0.2192E+00
    -14.829  0.0000E+00  0.2192E+00
    -14.693  0.0000E+00  0.2192E+00
    -14.557  0.0000E+00  0.2192E+00
    -14.421  0.0000E+00  0.2192E+00
    -14.285  0.0000E+00  0.2192E+00
    -14.149  0.0000E+00  0.2192E+00
    -14.013  0.0000E+00  0.2192E+00
    -13.877  0.0000E+00  0.2192E+00
    -13.741  0.0000E+00  0.2192E+00
    -13.605  0.0000E+00  0.2192E+00
    -13.469  0.0000E+00  0.2192E+00
    -13.333  0.0000E+00  0.2192E+00
    -13.196  0.0000E+00  0.2192E+00
    -13.060  0.0000E+00  0.2192E+00
    -12.924  0.0000E+00  0.2192E+00
    -12.788  0.0000E+00  0.2192E+00
    -12.652  0.0000E+00  0.2192E+00
    -12.516  0.0000E+00  0.2192E+00
    -12.380  0.0000E+00  0.2192E+00
    -12.244  0.0000E+00  0.2192E+00
    -12.108  0.0000E+00  0.2192E+00
    -11.972  0.0000E+00  0.2192E+00
    -11.836  0.0000E+00  0.2192E+00
    -11.700  0.0000E+00  0.2192E+00
    -11.564  0.0000E+00  0.2192E+00
    -11.428  0.0000E+00  0.2192E+00
    -11.292  0.0000E+00  0.2192E+00
    -11.156  0.0000E+00  0.2192E+00
    -11.020  0.0000E+00  0.2192E+00
    -10.884  0.0000E+00  0.2192E+00
    -10.748  0.0000E+00  0.2192E+00
    -10.612  0.0000E+00  0.2192E+00
    -10.476  0.0000E+00  0.2192E+00
    -10.340  0.0000E+00  0.2192E+00
    -10.204  0.0000E+00  0.2192E+00
    -10.068  0.0000E+00  0.2192E+00
     -9.932  0.0000E+00  0.2192E+00
     -9.796  0.0000E+00  0.2192E+00
     -9.660  0.0000E+00  0.2192E+00
     -9.524  0.0000E+00  0.2192E+00
     -9.388  0.0000E+00  0.2192E+00
     -9.252  0.0000E+00  0.2192E+00
     -9.116  0.2251E-13  0.2192E+00
     -8.980  0.3332E-05  0.2192E+00
     -8.844  0.1740E-02  0.2194E+00
     -8.707  0.1720E-01  0.2218E+00
     -8.571  0.3720E-01  0.2268E+00
     -8.435  0.6579E-01  0.2358E+00
     -8.299  0.5498E-01  0.2432E+00
     -8.163  0.2437E-01  0.2466E+00
     -8.027  0.1206E-03  0.2466E+00
     -7.891  0.3251E-11  0.2466E+00
     -7.755  0.0000E+00  0.2466E+00
     -7.619  0.0000E+00  0.2466E+00
     -7.483  0.0000E+00  0.2466E+00
     -7.347  0.0000E+00  0.2466E+00
     -7.211  0.0000E+00  0.2466E+00
     -7.075  0.0000E+00  0.2466E+00
     -6.939  0.0000E+00  0.2466E+00
     -6.803  0.0000E+00  0.2466E+00
     -6.667  0.0000E+00  0.2466E+00
     -6.531  0.0000E+00  0.2466E+00
     -6.395  0.0000E+00  0.2466E+00
     -6.259  0.0000E+00  0.2466E+00
     -6.123  0.0000E+00  0.2466E+00
     -5.987  0.0000E+00  0.2466E+00
     -5.851  0.0000E+00  0.2466E+00
     -5.715  0.0000E+00  0.2466E+00
     -5.579  0.0000E+00  0.2466E+00
     -5.443  0.0000E+00  0.2466E+00
     -5.307  0.0000E+00  0.2466E+00
     -5.171  0.0000E+00  0.2466E+00
     -5.035  0.0000E+00  0.2466E+00
     -4.899  0.0000E+00  0.2466E+00
     -4.763  0.0000E+00  0.2466E+00
     -4.627  0.0000E+00  0.2466E+00
     -4.491  0.5278E-15  0.2466E+00
     -4.355  0.1397E-05  0.2466E+00
     -4.219  0.4295E-02  0.2472E+00
     -4.082  0.1286E-01  0.2489E+00
     -3.946  0.2133E-01  0.2518E+00
     -3.810  0.1583E-01  0.2540E+00
     -3.674  0.1304E-01  0.2557E+00
     -3.538  0.1528E-01  0.2578E+00
     -3.402  0.1919E-01  0.2604E+00
     -3.266  0.2123E-01  0.2633E+00
     -3.130  0.1868E-01  0.2659E+00
     -2.994  0.1323E-01  0.2677E+00
     -2.858  0.2219E-01  0.2707E+00
     -2.722  0.5596E-02  0.2714E+00
     -2.586  0.2384E-03  0.2715E+00
     -2.450  0.3845E-02  0.2720E+00
     -2.314  0.1191E-01  0.2736E+00
     -2.178  0.3606E-03  0.2737E+00
     -2.042  0.1308E-08  0.2737E+00
     -1.906  0.8996E-04  0.2737E+00
     -1.770  0.2169E-02  0.2740E+00
     -1.634  0.4255E-04  0.2740E+00
     -1.498  0.3411E-11  0.2740E+00
     -1.362  0.0000E+00  0.2740E+00
     -1.226  0.0000E+00  0.2740E+00
     -1.090  0.0000E+00  0.2740E+00
     -0.954  0.4491E-08  0.2740E+00
     -0.818  0.1109E-02  0.2741E+00
     -0.682  0.1122E-01  0.2756E+00
     -0.546  0.8403E-02  0.2768E+00
     -0.410  0.1188E-01  0.2784E+00
     -0.274  0.2238E-01  0.2815E+00
     -0.138  0.1842E-01  0.2840E+00
     -0.002  0.3005E-01  0.2880E+00
      0.134  0.2477E-01  0.2914E+00
      0.270  0.2969E-01  0.2955E+00
      0.407  0.3807E-01  0.3006E+00
      0.543  0.1217E-01  0.3023E+00
      0.679  0.2011E-01  0.3050E+00
      0.815  0.2432E-01  0.3083E+00
      0.951  0.2899E-01  0.3123E+00
      1.087  0.2875E-01  0.3162E+00
      1.223  0.1480E-01  0.3182E+00
      1.359  0.2344E-01  0.3214E+00
      1.495  0.3117E-01  0.3256E+00
      1.631  0.1161E-01  0.3272E+00
      1.767  0.3146E-01  0.3315E+00
      1.903  0.1848E-01  0.3340E+00
      2.039  0.1937E-01  0.3366E+00
      2.175  0.2284E-01  0.3397E+00
      2.311  0.2548E-01  0.3432E+00
      2.447  0.2497E-01  0.3466E+00
      2.583  0.2508E-01  0.3500E+00
      2.719  0.4033E-01  0.3555E+00
      2.855  0.1506E-01  0.3576E+00
      2.991  0.8895E-02  0.3588E+00
      3.127  0.1535E-01  0.3608E+00
      3.263  0.6990E-02  0.3618E+00
      3.399  0.8189E-02  0.3629E+00
      3.535  0.5623E-02  0.3637E+00
      3.671  0.6990E-02  0.3646E+00
      3.807  0.3537E-01  0.3694E+00
      3.943  0.2311E-01  0.3726E+00
      4.079  0.2161E-01  0.3755E+00
      4.215  0.7783E-02  0.3766E+00
      4.351  0.2740E-01  0.3803E+00
      4.487  0.3451E-01  0.3850E+00
      4.623  0.2264E-01  0.3881E+00
      4.759  0.8940E-02  0.3893E+00
      4.895  0.4071E-01  0.3948E+00
      5.032  0.1954E-01  0.3975E+00
      5.168  0.2089E-01  0.4003E+00
      5.304  0.2018E-01  0.4031E+00
      5.440  0.2877E-02  0.4035E+00
      5.576  0.2363E-01  0.4067E+00
      5.712  0.3183E-01  0.4110E+00
      5.848  0.1001E-01  0.4124E+00
      5.984  0.3154E-01  0.4167E+00
      6.120  0.5642E-01  0.4243E+00
      6.256  0.3096E-01  0.4286E+00
      6.392  0.1972E-01  0.4312E+00
      6.528  0.1087E-01  0.4327E+00
      6.664  0.6561E-02  0.4336E+00
      6.800  0.7545E-02  0.4346E+00
      6.936  0.2119E-01  0.4375E+00
      7.072  0.6163E-02  0.4384E+00
      7.208  0.2226E-02  0.4387E+00
      7.344  0.1123E-01  0.4402E+00
      7.480  0.2221E-01  0.4432E+00
      7.616  0.7677E-02  0.4443E+00
      7.752  0.5300E-02  0.4450E+00
      7.888  0.3632E-01  0.4499E+00
      8.024  0.1844E-01  0.4524E+00
      8.160  0.1950E-01  0.4551E+00
      8.296  0.1797E-01  0.4575E+00
      8.432  0.4820E-01  0.4641E+00
      8.568  0.2088E-01  0.4669E+00
      8.704  0.2946E-02  0.4673E+00
      8.840  0.4362E-02  0.4679E+00
      8.976  0.1174E-01  0.4695E+00
      9.112  0.1279E-04  0.4695E+00
      9.248  0.1505E-05  0.4695E+00
      9.384  0.1153E-01  0.4711E+00
      9.521  0.4041E-01  0.4766E+00
      9.657  0.3618E-02  0.4771E+00
      9.793  0.8339E-02  0.4782E+00
      9.929  0.3502E-01  0.4830E+00
     10.065  0.8194E-02  0.4841E+00
     10.201  0.5138E-01  0.4911E+00
     10.337  0.6118E-01  0.4994E+00
     10.473  0.3525E-01  0.5042E+00
     10.609  0.2009E-01  0.5069E+00
     10.745  0.2671E-01  0.5106E+00
     10.881  0.3153E-01  0.5148E+00
     11.017  0.1706E-01  0.5172E+00
     11.153  0.3466E-01  0.5219E+00
     11.289  0.1759E-01  0.5243E+00
     11.425  0.3440E-01  0.5289E+00
     11.561  0.2153E-01  0.5319E+00
     11.697  0.4727E-01  0.5383E+00
     11.833  0.2815E-01  0.5421E+00
     11.969  0.4954E-01  0.5489E+00
     12.105  0.2600E-01  0.5524E+00
     12.241  0.2693E-01  0.5561E+00
     12.377  0.1462E-01  0.5581E+00
     12.513  0.2435E-01  0.5614E+00
     12.649  0.3033E-01  0.5655E+00
     12.785  0.4246E-01  0.5713E+00
     12.921  0.3964E-01  0.5767E+00
     13.057  0.1917E-01  0.5793E+00
     13.193  0.2797E-01  0.5831E+00
     13.329  0.3160E-01  0.5874E+00
     13.465  0.4339E-01  0.5933E+00
     13.601  0.4331E-01  0.5992E+00
     13.737  0.3208E-02  0.5996E+00
     13.873  0.8557E-02  0.6008E+00
     14.009  0.1054E+00  0.6151E+00
     14.146  0.6840E-01  0.6244E+00
     14.282  0.3194E-01  0.6288E+00
     14.418  0.3154E-01  0.6331E+00
     14.554  0.1512E-01  0.6351E+00
     14.690  0.8298E-02  0.6362E+00
     14.826  0.2641E-01  0.6398E+00
     14.962  0.2616E-01  0.6434E+00
     15.098  0.4920E-01  0.6501E+00
     15.234  0.1891E-01  0.6527E+00
     15.370  0.1228E-01  0.6543E+00
     15.506  0.8528E-02  0.6555E+00
     15.642  0.1249E-03  0.6555E+00
     15.778  0.1228E-02  0.6557E+00
     15.914  0.1363E-01  0.6575E+00
     16.050  0.1053E-03  0.6575E+00
     16.186  0.2203E-11  0.6575E+00
     16.322  0.0000E+00  0.6575E+00
     16.458  0.0000E+00  0.6575E+00
     16.594  0.0000E+00  0.6575E+00
     16.730  0.0000E+00  0.6575E+00
     16.866  0.0000E+00  0.6575E+00
     17.002  0.0000E+00  0.6575E+00
     17.138  0.0000E+00  0.6575E+00
     17.274  0.0000E+00  0.6575E+00
     17.410  0.0000E+00  0.6575E+00
     17.546  0.0000E+00  0.6575E+00
     17.682  0.0000E+00  0.6575E+00
