   3   3   0   0
  0.2753758E+02  0.5086856E-09  0.5086856E-09  0.3686528E-09  0.1500000E-16
   1.0000000000000000E-004
  CAR 
 unknown system                          
     24.14829308    -23.43454200  301      3.86342793      1.00000000
    -23.435  0.0000E+00  0.0000E+00
    -23.276  0.0000E+00  0.0000E+00
    -23.117  0.0000E+00  0.0000E+00
    -22.959  0.0000E+00  0.0000E+00
    -22.800  0.0000E+00  0.0000E+00
    -22.641  0.0000E+00  0.0000E+00
    -22.483  0.0000E+00  0.0000E+00
    -22.324  0.0000E+00  0.0000E+00
    -22.166  0.0000E+00  0.0000E+00
    -22.007  0.0000E+00  0.0000E+00
    -21.848  0.0000E+00  0.0000E+00
    -21.690  0.0000E+00  0.0000E+00
    -21.531  0.7302E-14  0.1158E-14
    -21.373  0.3275E-03  0.5194E-04
    -21.214  0.4570E+00  0.7254E-01
    -21.055  0.6083E-01  0.8219E-01
    -20.897  0.4361E-08  0.8219E-01
    -20.738  0.0000E+00  0.8219E-01
    -20.580  0.0000E+00  0.8219E-01
    -20.421  0.0000E+00  0.8219E-01
    -20.262  0.0000E+00  0.8219E-01
    -20.104  0.0000E+00  0.8219E-01
    -19.945  0.0000E+00  0.8219E-01
    -19.787  0.0000E+00  0.8219E-01
    -19.628  0.0000E+00  0.8219E-01
    -19.469  0.0000E+00  0.8219E-01
    -19.311  0.0000E+00  0.8219E-01
    -19.152  0.0000E+00  0.8219E-01
    -18.993  0.0000E+00  0.8219E-01
    -18.835  0.0000E+00  0.8219E-01
    -18.676  0.0000E+00  0.8219E-01
    -18.518  0.0000E+00  0.8219E-01
    -18.359  0.1194E-11  0.8219E-01
    -18.200  0.2952E-02  0.8266E-01
    -18.042  0.3625E+00  0.1402E+00
    -17.883  0.4921E+00  0.2182E+00
    -17.725  0.6078E-02  0.2192E+00
    -17.566  0.9830E-10  0.2192E+00
    -17.407  0.0000E+00  0.2192E+00
    -17.249  0.0000E+00  0.2192E+00
    -17.090  0.0000E+00  0.2192E+00
    -16.932  0.0000E+00  0.2192E+00
    -16.773  0.0000E+00  0.2192E+00
    -16.614  0.0000E+00  0.2192E+00
    -16.456  0.0000E+00  0.2192E+00
    -16.297  0.0000E+00  0.2192E+00
    -16.139  0.0000E+00  0.2192E+00
    -15.980  0.0000E+00  0.2192E+00
    -15.821  0.0000E+00  0.2192E+00
    -15.663  0.0000E+00  0.2192E+00
    -15.504  0.0000E+00  0.2192E+00
    -15.345  0.0000E+00  0.2192E+00
    -15.187  0.0000E+00  0.2192E+00
    -15.028  0.0000E+00  0.2192E+00
    -14.870  0.0000E+00  0.2192E+00
    -14.711  0.0000E+00  0.2192E+00
    -14.552  0.0000E+00  0.2192E+00
    -14.394  0.0000E+00  0.2192E+00
    -14.235  0.0000E+00  0.2192E+00
    -14.077  0.0000E+00  0.2192E+00
    -13.918  0.0000E+00  0.2192E+00
    -13.759  0.0000E+00  0.2192E+00
    -13.601  0.0000E+00  0.2192E+00
    -13.442  0.0000E+00  0.2192E+00
    -13.284  0.0000E+00  0.2192E+00
    -13.125  0.0000E+00  0.2192E+00
    -12.966  0.0000E+00  0.2192E+00
    -12.808  0.0000E+00  0.2192E+00
    -12.649  0.0000E+00  0.2192E+00
    -12.490  0.0000E+00  0.2192E+00
    -12.332  0.0000E+00  0.2192E+00
    -12.173  0.0000E+00  0.2192E+00
    -12.015  0.0000E+00  0.2192E+00
    -11.856  0.0000E+00  0.2192E+00
    -11.697  0.0000E+00  0.2192E+00
    -11.539  0.0000E+00  0.2192E+00
    -11.380  0.0000E+00  0.2192E+00
    -11.222  0.0000E+00  0.2192E+00
    -11.063  0.0000E+00  0.2192E+00
    -10.904  0.0000E+00  0.2192E+00
    -10.746  0.0000E+00  0.2192E+00
    -10.587  0.0000E+00  0.2192E+00
    -10.429  0.0000E+00  0.2192E+00
    -10.270  0.0000E+00  0.2192E+00
    -10.111  0.0000E+00  0.2192E+00
     -9.953  0.0000E+00  0.2192E+00
     -9.794  0.0000E+00  0.2192E+00
     -9.636  0.0000E+00  0.2192E+00
     -9.477  0.0000E+00  0.2192E+00
     -9.318  0.0000E+00  0.2192E+00
     -9.160  0.1973E-17  0.2192E+00
     -9.001  0.3743E-06  0.2192E+00
     -8.842  0.1535E-02  0.2194E+00
     -8.684  0.1812E-01  0.2223E+00
     -8.525  0.4997E-01  0.2302E+00
     -8.367  0.5986E-01  0.2397E+00
     -8.208  0.4160E-01  0.2463E+00
     -8.049  0.1645E-02  0.2466E+00
     -7.891  0.1231E-09  0.2466E+00
     -7.732  0.0000E+00  0.2466E+00
     -7.574  0.0000E+00  0.2466E+00
     -7.415  0.0000E+00  0.2466E+00
     -7.256  0.0000E+00  0.2466E+00
     -7.098  0.0000E+00  0.2466E+00
     -6.939  0.0000E+00  0.2466E+00
     -6.781  0.0000E+00  0.2466E+00
     -6.622  0.0000E+00  0.2466E+00
     -6.463  0.0000E+00  0.2466E+00
     -6.305  0.0000E+00  0.2466E+00
     -6.146  0.0000E+00  0.2466E+00
     -5.988  0.0000E+00  0.2466E+00
     -5.829  0.0000E+00  0.2466E+00
     -5.670  0.0000E+00  0.2466E+00
     -5.512  0.0000E+00  0.2466E+00
     -5.353  0.0000E+00  0.2466E+00
     -5.194  0.0000E+00  0.2466E+00
     -5.036  0.0000E+00  0.2466E+00
     -4.877  0.0000E+00  0.2466E+00
     -4.719  0.0000E+00  0.2466E+00
     -4.560  0.0000E+00  0.2466E+00
     -4.401  0.3423E-08  0.2466E+00
     -4.243  0.2091E-02  0.2469E+00
     -4.084  0.1230E-01  0.2489E+00
     -3.926  0.2245E-01  0.2524E+00
     -3.767  0.1476E-01  0.2548E+00
     -3.608  0.1308E-01  0.2568E+00
     -3.450  0.1518E-01  0.2592E+00
     -3.291  0.2091E-01  0.2626E+00
     -3.133  0.2054E-01  0.2658E+00
     -2.974  0.1407E-01  0.2680E+00
     -2.815  0.1940E-01  0.2711E+00
     -2.657  0.2160E-02  0.2715E+00
     -2.498  0.3079E-03  0.2715E+00
     -2.339  0.1270E-01  0.2735E+00
     -2.181  0.8167E-03  0.2737E+00
     -2.022  0.2080E-08  0.2737E+00
     -1.864  0.5656E-03  0.2737E+00
     -1.705  0.1408E-02  0.2740E+00
     -1.546  0.8651E-07  0.2740E+00
     -1.388  0.0000E+00  0.2740E+00
     -1.229  0.0000E+00  0.2740E+00
     -1.071  0.9863E-18  0.2740E+00
     -0.912  0.7552E-06  0.2740E+00
     -0.753  0.4844E-02  0.2747E+00
     -0.595  0.1275E-01  0.2768E+00
     -0.436  0.5780E-02  0.2777E+00
     -0.278  0.2370E-01  0.2814E+00
     -0.119  0.2152E-01  0.2849E+00
      0.040  0.2060E-01  0.2881E+00
      0.198  0.3739E-01  0.2941E+00
      0.357  0.3136E-01  0.2990E+00
      0.515  0.1746E-01  0.3018E+00
      0.674  0.1971E-01  0.3049E+00
      0.833  0.2510E-01  0.3089E+00
      0.991  0.2792E-01  0.3133E+00
      1.150  0.2749E-01  0.3177E+00
      1.309  0.1255E-01  0.3197E+00
      1.467  0.3706E-01  0.3256E+00
      1.626  0.9188E-02  0.3270E+00
      1.784  0.3061E-01  0.3319E+00
      1.943  0.1439E-01  0.3342E+00
      2.102  0.2746E-01  0.3385E+00
      2.260  0.2060E-01  0.3418E+00
      2.419  0.2962E-01  0.3465E+00
      2.577  0.2048E-01  0.3497E+00
      2.736  0.3818E-01  0.3558E+00
      2.895  0.1367E-01  0.3579E+00
      3.053  0.8628E-02  0.3593E+00
      3.212  0.1546E-01  0.3618E+00
      3.370  0.3537E-02  0.3623E+00
      3.529  0.8502E-02  0.3637E+00
      3.688  0.9942E-02  0.3653E+00
      3.846  0.2791E-01  0.3697E+00
      4.005  0.2969E-01  0.3744E+00
      4.164  0.9202E-02  0.3759E+00
      4.322  0.2042E-01  0.3791E+00
      4.481  0.3636E-01  0.3849E+00
      4.639  0.2173E-01  0.3883E+00
      4.798  0.1133E-01  0.3901E+00
      4.957  0.4322E-01  0.3970E+00
      5.115  0.1130E-01  0.3987E+00
      5.274  0.2604E-01  0.4029E+00
      5.432  0.3168E-02  0.4034E+00
      5.591  0.2373E-01  0.4071E+00
      5.750  0.2748E-01  0.4115E+00
      5.908  0.1289E-01  0.4135E+00
      6.067  0.4946E-01  0.4214E+00
      6.225  0.4034E-01  0.4278E+00
      6.384  0.2083E-01  0.4311E+00
      6.543  0.1023E-01  0.4327E+00
      6.701  0.9942E-02  0.4343E+00
      6.860  0.6492E-02  0.4353E+00
      7.018  0.1904E-01  0.4383E+00
      7.177  0.1308E-02  0.4386E+00
      7.336  0.9095E-02  0.4400E+00
      7.494  0.2089E-01  0.4433E+00
      7.653  0.6284E-02  0.4443E+00
      7.812  0.1222E-01  0.4462E+00
      7.970  0.3258E-01  0.4514E+00
      8.129  0.2187E-01  0.4549E+00
      8.287  0.1385E-01  0.4571E+00
      8.446  0.4756E-01  0.4646E+00
      8.605  0.1661E-01  0.4673E+00
      8.763  0.4561E-03  0.4673E+00
      8.922  0.1306E-01  0.4694E+00
      9.080  0.7072E-03  0.4695E+00
      9.239  0.4339E-06  0.4695E+00
      9.398  0.1356E-01  0.4717E+00
      9.556  0.3337E-01  0.4770E+00
      9.715  0.3244E-02  0.4775E+00
      9.873  0.1977E-01  0.4806E+00
     10.032  0.1854E-01  0.4835E+00
     10.191  0.4530E-01  0.4907E+00
     10.349  0.5912E-01  0.5001E+00
     10.508  0.2951E-01  0.5048E+00
     10.666  0.2358E-01  0.5085E+00
     10.825  0.2966E-01  0.5132E+00
     10.984  0.1659E-01  0.5159E+00
     11.142  0.3617E-01  0.5216E+00
     11.301  0.1913E-01  0.5246E+00
     11.460  0.3014E-01  0.5294E+00
     11.618  0.2343E-01  0.5331E+00
     11.777  0.4567E-01  0.5404E+00
     11.935  0.4056E-01  0.5468E+00
     12.094  0.3359E-01  0.5521E+00
     12.253  0.2579E-01  0.5562E+00
     12.411  0.1839E-01  0.5591E+00
     12.570  0.2098E-01  0.5625E+00
     12.728  0.3622E-01  0.5682E+00
     12.887  0.4626E-01  0.5756E+00
     13.046  0.2179E-01  0.5790E+00
     13.204  0.2787E-01  0.5834E+00
     13.363  0.3250E-01  0.5886E+00
     13.521  0.4397E-01  0.5956E+00
     13.680  0.2551E-01  0.5996E+00
     13.839  0.1336E-02  0.5998E+00
     13.997  0.8958E-01  0.6140E+00
     14.156  0.6770E-01  0.6248E+00
     14.315  0.3588E-01  0.6305E+00
     14.473  0.3826E-01  0.6365E+00
     14.632  0.1069E-01  0.6382E+00
     14.790  0.2254E-01  0.6418E+00
     14.949  0.3338E-01  0.6471E+00
     15.108  0.5969E-01  0.6566E+00
     15.266  0.2916E-01  0.6612E+00
     15.425  0.3360E-01  0.6665E+00
     15.583  0.9845E-02  0.6681E+00
     15.742  0.3208E-01  0.6732E+00
     15.901  0.5487E-01  0.6819E+00
     16.059  0.6142E-01  0.6916E+00
     16.218  0.2480E-01  0.6955E+00
     16.376  0.1202E-01  0.6974E+00
     16.535  0.1554E-01  0.6999E+00
     16.694  0.5589E-01  0.7088E+00
     16.852  0.2414E-01  0.7126E+00
     17.011  0.3346E-01  0.7179E+00
     17.169  0.4629E-01  0.7253E+00
     17.328  0.4443E-01  0.7323E+00
     17.487  0.2518E-01  0.7363E+00
     17.645  0.6952E-01  0.7473E+00
     17.804  0.2397E-01  0.7511E+00
     17.963  0.1881E-01  0.7541E+00
     18.121  0.2097E-01  0.7574E+00
     18.280  0.4195E-01  0.7641E+00
     18.438  0.6939E-01  0.7751E+00
     18.597  0.4309E-01  0.7819E+00
     18.756  0.6638E-01  0.7925E+00
     18.914  0.3759E-01  0.7984E+00
     19.073  0.2263E-01  0.8020E+00
     19.231  0.2627E-01  0.8062E+00
     19.390  0.4280E-01  0.8130E+00
     19.549  0.3667E-01  0.8188E+00
     19.707  0.3250E-01  0.8239E+00
     19.866  0.3778E-01  0.8299E+00
     20.024  0.3895E-01  0.8361E+00
     20.183  0.3703E-01  0.8420E+00
     20.342  0.2540E-01  0.8460E+00
     20.500  0.2484E-01  0.8499E+00
     20.659  0.3685E-01  0.8558E+00
     20.817  0.4691E-01  0.8632E+00
     20.976  0.9991E-02  0.8648E+00
     21.135  0.1632E-01  0.8674E+00
     21.293  0.2691E-01  0.8717E+00
     21.452  0.3498E-02  0.8722E+00
     21.611  0.8198E-02  0.8735E+00
     21.769  0.7167E-02  0.8747E+00
     21.928  0.1675E-02  0.8749E+00
     22.086  0.1121E-01  0.8767E+00
     22.245  0.2550E-04  0.8767E+00
     22.404  0.0000E+00  0.8767E+00
     22.562  0.0000E+00  0.8767E+00
     22.721  0.0000E+00  0.8767E+00
     22.879  0.0000E+00  0.8767E+00
     23.038  0.0000E+00  0.8767E+00
     23.197  0.0000E+00  0.8767E+00
     23.355  0.0000E+00  0.8767E+00
     23.514  0.0000E+00  0.8767E+00
     23.672  0.0000E+00  0.8767E+00
     23.831  0.0000E+00  0.8767E+00
     23.990  0.0000E+00  0.8767E+00
     24.148  0.0000E+00  0.8767E+00
