 vasp.6.3.2 27Jun22 (build Jun 14 2024 17:29:11) complex                         
 executed on             LinuxGNU date 2026.03.30  04:49:05
 running on   32 total cores
 distrk:  each k-point on   32 cores,    1 groups
 distr:  one band on NCORE=   1 cores,   32 groups


--------------------------------------------------------------------------------------------------------


 INCAR:
   EDIFF = 1e-06
   ENCUT = 400.0
   IBRION = 6
   ISIF = 3
   ISMEAR = 0
   LCHARG = False
   LREAL = Auto
   LWAVE = False
   NFREE = 4
   NSW = 1
   POTIM = 0.015
   SIGMA = 0.05

 POTCAR:    PAW_PBE Na_pv 19Sep2006               
 POTCAR:    PAW_PBE Sn_d 06Sep2000                
 POTCAR:    PAW_PBE S 06Sep2000                   
 -----------------------------------------------------------------------------
|                                                                             |
|           W    W    AA    RRRRR   N    N  II  N    N   GGGG   !!!           |
|           W    W   A  A   R    R  NN   N  II  NN   N  G    G  !!!           |
|           W    W  A    A  R    R  N N  N  II  N N  N  G       !!!           |
|           W WW W  AAAAAA  RRRRR   N  N N  II  N  N N  G  GGG   !            |
|           WW  WW  A    A  R   R   N   NN  II  N   NN  G    G                |
|           W    W  A    A  R    R  N    N  II  N    N   GGGG   !!!           |
|                                                                             |
|     For optimal performance we recommend to set                             |
|       NCORE = 2 up to number-of-cores-per-socket                            |
|     NCORE specifies how many cores store one orbital (NPAR=cpu/NCORE).      |
|     This setting can greatly improve the performance of VASP for DFT.       |
|     The default, NCORE=1 might be grossly inefficient on modern             |
|     multi-core architectures or massively parallel machines. Do your        |
|     own testing! More info at https://www.vasp.at/wiki/index.php/NCORE      |
|     Unfortunately you need to use the default for GW and RPA                |
|     calculations (for HF NCORE is supported but not extensively tested      |
|     yet).                                                                   |
|                                                                             |
 -----------------------------------------------------------------------------

 POTCAR:    PAW_PBE Na_pv 19Sep2006               
   SHA256 =  6a2f546d9e11350984debacf3dc457d8cffc0868e817d445faca461816a32b94 Na_pv/POTCAR          
   COPYR  = (c) Copyright 19Sep2006 Georg Kresse                                                    
   COPYR  = This file is part of the software VASP. Any use, copying, and all other rights are regul
   COPYR  = If you do not have a valid VASP license, you may not use, copy or distribute this file. 
   VRHFIN =Na: p6s1                                                                                 
   LEXCH  = PE                                                                                      
   EATOM  =   766.0439 eV,   56.3026 Ry                                                             
                                                                                                    
   TITEL  = PAW_PBE Na_pv 19Sep2006                                                                 
   LULTRA =        F    use ultrasoft PP ?                                                          
   IUNSCR =        1    unscreen: 0-lin 1-nonlin 2-no                                               
   RPACOR =    1.800    partial core radius                                                         
   POMASS =   22.990; ZVAL   =    7.000    mass and valenz                                          
   RCORE  =    2.200    outmost cutoff radius                                                       
   RWIGS  =    2.200; RWIGS  =    1.164    wigner-seitz radius (au A)                               
   ENMAX  =  259.561; ENMIN  =  194.671 eV                                                          
   ICORE  =        2    local potential                                                             
   LCOR   =        T    correct aug charges                                                         
   LPAW   =        T    paw PP                                                                      
   EAUG   =  368.056                                                                                
   DEXC   =    0.000                                                                                
   RMAX   =    2.245    core radius for proj-oper                                                   
   RAUG   =    1.300    factor for augmentation sphere                                              
   RDEP   =    2.259    radius for radial grids                                                     
   RDEPT  =    1.738    core radius for aug-charge                                                  
                                                                                                    
   Atomic configuration                                                                             
    5 entries                                                                                       
     n  l   j            E        occ.                                                              
     1  0  0.50     -1033.6933   2.0000                                                             
     2  0  0.50       -56.7526   2.0000                                                             
     2  1  1.50       -28.6721   6.0000                                                             
     3  0  0.50        -2.7440   1.0000                                                             
     3  2  1.50        -1.3606   0.0000                                                             
   Description                                                                                      
     l       E           TYP  RCUT    TYP  RCUT                                                     
     1    -28.6720912     23  2.000                                                                 
     1      6.8029130     23  2.000                                                                 
     0     -2.7439560     23  2.200                                                                 
     0     34.0145650     23  2.200                                                                 
     2     -1.3605826     23  2.200                                                                 
  local pseudopotential read in
  partial core-charges read in
  partial kinetic energy density read in
  atomic valenz-charges read in
  non local Contribution for L=           1  read in
    real space projection operators read in
  non local Contribution for L=           1  read in
    real space projection operators read in
  non local Contribution for L=           0  read in
    real space projection operators read in
  non local Contribution for L=           0  read in
    real space projection operators read in
    PAW grid and wavefunctions read in

   number of l-projection  operators is LMAX  =           4
   number of lm-projection operators is LMMAX =           8

 POTCAR:    PAW_PBE Sn_d 06Sep2000                
   SHA256 =  385b269c1887fa92a2bd1b595c4ea1490c7eb92f9f3d87257729a4a813cde741 Sn_d/POTCAR           
   COPYR  = (c) Copyright 06Sep2000 Georg Kresse                                                    
   COPYR  = This file is part of the software VASP. Any use, copying, and all other rights are regul
   COPYR  = If you do not have a valid VASP license, you may not use, copy or distribute this file. 
   VRHFIN =Sn: s2p2                                                                                 
   LEXCH  = PE                                                                                      
   EATOM  =  1893.1092 eV,  139.1396 Ry                                                             
                                                                                                    
   TITEL  = PAW_PBE Sn_d 06Sep2000                                                                  
   LULTRA =        F    use ultrasoft PP ?                                                          
   IUNSCR =        1    unscreen: 0-lin 1-nonlin 2-no                                               
   RPACOR =    2.300    partial core radius                                                         
   POMASS =  118.710; ZVAL   =   14.000    mass and valenz                                          
   RCORE  =    2.500    outmost cutoff radius                                                       
   RWIGS  =    2.960; RWIGS  =    1.566    wigner-seitz radius (au A)                               
   ENMAX  =  241.083; ENMIN  =  180.812 eV                                                          
   ICORE  =        3    local potential                                                             
   LCOR   =        T    correct aug charges                                                         
   LPAW   =        T    paw PP                                                                      
   EAUG   =  439.825                                                                                
   DEXC   =    0.000                                                                                
   RMAX   =    2.560    core radius for proj-oper                                                   
   RAUG   =    1.300    factor for augmentation sphere                                              
   RDEP   =    2.659    radius for radial grids                                                     
   RDEPT  =    2.046    core radius for aug-charge                                                  
                                                                                                    
   Atomic configuration                                                                             
   12 entries                                                                                       
     n  l   j            E        occ.                                                              
     1  0  0.50    -29007.2859   2.0000                                                             
     2  0  0.50     -4378.8056   2.0000                                                             
     2  1  1.50     -3930.4293   6.0000                                                             
     3  0  0.50      -845.0264   2.0000                                                             
     3  1  1.50      -698.5725   6.0000                                                             
     3  2  2.50      -473.2839  10.0000                                                             
     4  0  0.50      -133.9036   2.0000                                                             
     4  1  1.50       -89.6752   6.0000                                                             
     4  2  2.50       -25.8375  10.0000                                                             
     5  0  0.50       -10.5484   2.0000                                                             
     5  1  0.50        -3.6940   2.0000                                                             
     4  3  2.50        -2.7416   0.0000                                                             
   Description                                                                                      
     l       E           TYP  RCUT    TYP  RCUT                                                     
     2    -25.8374624     23  2.500                                                                 
     2     -5.4423304     23  2.500                                                                 
     0    -10.5483727     23  2.500                                                                 
     0     13.6058260     23  2.500                                                                 
     1     -3.6939829     23  2.500                                                                 
     1      1.9821976     23  2.500                                                                 
     3     -1.3605826      7  2.500                                                                 
  local pseudopotential read in
  partial core-charges read in
  partial kinetic energy density read in
  atomic valenz-charges read in
  non local Contribution for L=           2  read in
    real space projection operators read in
  non local Contribution for L=           2  read in
    real space projection operators read in
  non local Contribution for L=           0  read in
    real space projection operators read in
  non local Contribution for L=           0  read in
    real space projection operators read in
  non local Contribution for L=           1  read in
    real space projection operators read in
  non local Contribution for L=           1  read in
    real space projection operators read in
    PAW grid and wavefunctions read in

   number of l-projection  operators is LMAX  =           6
   number of lm-projection operators is LMMAX =          18

 POTCAR:    PAW_PBE S 06Sep2000                   
   SHA256 =  0fc7481fb0695f01bdc6462160264c5c84044ae9ec85a907d398b887a2bc3132 S/POTCAR              
   COPYR  = (c) Copyright 06Sep2000 Georg Kresse                                                    
   COPYR  = This file is part of the software VASP. Any use, copying, and all other rights are regul
   COPYR  = If you do not have a valid VASP license, you may not use, copy or distribute this file. 
   VRHFIN =S : s2p4                                                                                 
   LEXCH  = PE                                                                                      
   EATOM  =   276.8230 eV,   20.3459 Ry                                                             
                                                                                                    
   TITEL  = PAW_PBE S 06Sep2000                                                                     
   LULTRA =        F    use ultrasoft PP ?                                                          
   IUNSCR =        1    unscreen: 0-lin 1-nonlin 2-no                                               
   RPACOR =    1.500    partial core radius                                                         
   POMASS =   32.066; ZVAL   =    6.000    mass and valenz                                          
   RCORE  =    1.900    outmost cutoff radius                                                       
   RWIGS  =    2.200; RWIGS  =    1.164    wigner-seitz radius (au A)                               
   ENMAX  =  258.689; ENMIN  =  194.016 eV                                                          
   ICORE  =        2    local potential                                                             
   LCOR   =        T    correct aug charges                                                         
   LPAW   =        T    paw PP                                                                      
   EAUG   =  335.092                                                                                
   DEXC   =    0.000                                                                                
   RMAX   =    1.942    core radius for proj-oper                                                   
   RAUG   =    1.300    factor for augmentation sphere                                              
   RDEP   =    1.954    radius for radial grids                                                     
   RDEPT  =    1.744    core radius for aug-charge                                                  
                                                                                                    
   Atomic configuration                                                                             
    6 entries                                                                                       
     n  l   j            E        occ.                                                              
     1  0  0.50     -2405.8406   2.0000                                                             
     2  0  0.50      -211.7007   2.0000                                                             
     2  1  1.50      -156.4958   6.0000                                                             
     3  0  0.50       -17.2562   2.0000                                                             
     3  1  0.50        -7.0085   4.0000                                                             
     3  2  1.50        -6.8029   0.0000                                                             
   Description                                                                                      
     l       E           TYP  RCUT    TYP  RCUT                                                     
     0    -17.2561641     23  1.900                                                                 
     0    -15.8743224     23  1.900                                                                 
     1     -7.0085400     23  1.900                                                                 
     1     -2.7779785     23  1.900                                                                 
     2     -6.8029130     23  1.900                                                                 
  local pseudopotential read in
  partial core-charges read in
  partial kinetic energy density read in
  atomic valenz-charges read in
  non local Contribution for L=           0  read in
    real space projection operators read in
  non local Contribution for L=           0  read in
    real space projection operators read in
  non local Contribution for L=           1  read in
    real space projection operators read in
  non local Contribution for L=           1  read in
    real space projection operators read in
    PAW grid and wavefunctions read in

   number of l-projection  operators is LMAX  =           4
   number of lm-projection operators is LMMAX =           8

 -----------------------------------------------------------------------------
|                                                                             |
|               ----> ADVICE to this user running VASP <----                  |
|                                                                             |
|     You have a (more or less) 'small supercell' and for smaller cells       |
|     it is recommended to use the reciprocal-space projection scheme!        |
|     The real-space optimization is not efficient for small cells and it     |
|     is also less accurate ...                                               |
|     Therefore, set LREAL=.FALSE. in the INCAR file.                         |
|                                                                             |
 -----------------------------------------------------------------------------

 Optimization of the real space projectors (new method)

 maximal supplied QI-value         = 17.01
 optimisation between [QCUT,QGAM] = [ 10.20, 20.41] = [ 29.16,116.64] Ry 
 Optimized for a Real-space Cutoff    1.30 Angstroem

   l    n(q)    QCUT    max X(q) W(low)/X(q) W(high)/X(q)  e(spline) 
   1      7    10.205     4.940    0.23E-03    0.84E-03    0.11E-06
   1      7    10.205     6.253    0.40E-03    0.13E-02    0.18E-06
   0      8    10.205    37.438    0.23E-03    0.37E-03    0.42E-07
   0      8    10.205     9.606    0.16E-03    0.26E-03    0.31E-07
 Optimization of the real space projectors (new method)

 maximal supplied QI-value         = 15.12
 optimisation between [QCUT,QGAM] = [ 10.13, 20.41] = [ 28.73,116.64] Ry 
 Optimized for a Real-space Cutoff    1.38 Angstroem

   l    n(q)    QCUT    max X(q) W(low)/X(q) W(high)/X(q)  e(spline) 
   2      7    10.129     5.880    0.15E-03    0.14E-04    0.57E-07
   2      7    10.129     7.804    0.33E-03    0.17E-03    0.10E-06
   0      8    10.129    20.557    0.11E-03    0.15E-03    0.82E-07
   0      8    10.129     9.400    0.14E-03    0.19E-03    0.10E-06
   1      8    10.129    94.178    0.28E-03    0.18E-03    0.13E-06
   1      8    10.129    56.401    0.27E-03    0.17E-03    0.13E-06
 Optimization of the real space projectors (new method)

 maximal supplied QI-value         = 19.84
 optimisation between [QCUT,QGAM] = [ 10.12, 20.44] = [ 28.68,116.96] Ry 
 Optimized for a Real-space Cutoff    1.23 Angstroem

   l    n(q)    QCUT    max X(q) W(low)/X(q) W(high)/X(q)  e(spline) 
   0      7    10.119   187.594    0.62E-04    0.28E-03    0.52E-07
   0      7    10.119   164.243    0.61E-04    0.28E-03    0.52E-07
   1      7    10.119    67.533    0.45E-03    0.63E-03    0.13E-06
   1      7    10.119    50.729    0.44E-03    0.62E-03    0.12E-06
  PAW_PBE Na_pv 19Sep2006               :
 energy of atom  1       EATOM= -766.0439
 kinetic energy error for atom=    0.0103 (will be added to EATOM!!)
  PAW_PBE Sn_d 06Sep2000                :
 energy of atom  2       EATOM=-1893.1092
 kinetic energy error for atom=    0.0047 (will be added to EATOM!!)
  PAW_PBE S 06Sep2000                   :
 energy of atom  3       EATOM= -276.8230
 kinetic energy error for atom=    0.0046 (will be added to EATOM!!)


 POSCAR: Na1 Sn1 S1
  positions in direct lattice
  velocities in cartesian coordinates
 exchange correlation table for  LEXCH =        8
   RHO(1)=    0.500       N(1)  =     2000
   RHO(2)=  100.500       N(2)  =     4000



--------------------------------------------------------------------------------------------------------


 ion  position               nearest neighbor table
   1  0.000  0.000  0.000-   2 2.94   2 2.94   2 2.94
   2  0.667  0.333  0.000-   3 2.94   1 2.94   3 2.94   1 2.94   1 2.94   3 2.94
   3  0.333  0.667  0.000-   2 2.94   2 2.94   2 2.94

  LATTYP: Found a hexagonal cell.
 ALAT       =     5.0868558200
 C/A-ratio  =     0.7247165115
  
  Lattice vectors:
  
 A1 = (   5.0868558200,   0.0000000000,   0.0000000000)
 A2 = (  -2.5434279100,   4.4053463655,   0.0000000000)
 A3 = (   0.0000000000,   0.0000000000,   3.6865284043)


Analysis of symmetry for initial positions (statically):
=====================================================================
 Subroutine PRICEL returns:
 Original cell was already a primitive cell.
 

 Routine SETGRP: Setting up the symmetry group for a 
 hexagonal supercell.


 Subroutine GETGRP returns: Found 12 space group operations
 (whereof 12 operations were pure point group operations)
 out of a pool of 24 trial point group operations.


The static configuration has the point symmetry D_3h.


Analysis of symmetry for dynamics (positions and initial velocities):
=====================================================================
 Subroutine PRICEL returns:
 Original cell was already a primitive cell.
 

 Routine SETGRP: Setting up the symmetry group for a 
 hexagonal supercell.


 Subroutine GETGRP returns: Found 12 space group operations
 (whereof 12 operations were pure point group operations)
 out of a pool of 24 trial point group operations.


The dynamic configuration has the point symmetry D_3h.


 Subroutine INISYM returns: Found 12 space group operations
 (whereof 12 operations are pure point group operations),
 and found     1 'primitive' translations


----------------------------------------------------------------------------------------

                                     Primitive cell                                     

  volume of cell :      82.6127

  direct lattice vectors                    reciprocal lattice vectors
     5.086855820  0.000000000  0.000000000     0.196585088  0.113498454 -0.000000000
    -2.543427910  4.405346366  0.000000000     0.000000000  0.226996907  0.000000000
     0.000000000  0.000000000  3.686528404     0.000000000 -0.000000000  0.271257913

  length of vectors
     5.086855820  5.086855820  3.686528404     0.226996907  0.226996907  0.271257913

  position of ions in fractional coordinates (direct lattice)
     0.000000000  0.000000000  0.000000000
     0.666666792  0.333333141  0.000000000
     0.333333141  0.666666282  0.000000000

  ion indices of the primitive-cell ions
   primitive index   ion index
                 1           1
                 2           2
                 3           3

----------------------------------------------------------------------------------------



 KPOINTS: pymatgen with grid density = 600 / numbe

Automatic generation of k-mesh.
 Grid dimensions read from file:
 generate k-points for:    5    5    7

 Generating k-lattice:

  Cartesian coordinates                     Fractional coordinates (reciprocal lattice)
     0.039317018  0.022699691 -0.000000000     0.200000000  0.000000000  0.000000000
     0.000000000  0.045399381  0.000000000     0.000000000  0.200000000  0.000000000
     0.000000000 -0.000000000  0.038751130     0.000000000  0.000000000  0.142857143

  Length of vectors
     0.045399381  0.045399381  0.038751130

  Shift w.r.t. Gamma in fractional coordinates (k-lattice)
     0.000000000  0.000000000  0.000000000

 
 Subroutine IBZKPT returns following result:
 ===========================================
 
 Found     20 irreducible k-points:
 
 Following reciprocal coordinates:
            Coordinates               Weight
  0.000000  0.000000  0.000000      1.000000
  0.200000  0.000000  0.000000      6.000000
  0.400000  0.000000  0.000000      6.000000
  0.200000  0.200000  0.000000      6.000000
  0.400000  0.200000  0.000000      6.000000
  0.000000  0.000000  0.142857      2.000000
  0.200000  0.000000  0.142857     12.000000
  0.400000  0.000000  0.142857     12.000000
  0.200000  0.200000  0.142857     12.000000
  0.400000  0.200000  0.142857     12.000000
  0.000000  0.000000  0.285714      2.000000
  0.200000  0.000000  0.285714     12.000000
  0.400000  0.000000  0.285714     12.000000
  0.200000  0.200000  0.285714     12.000000
  0.400000  0.200000  0.285714     12.000000
  0.000000  0.000000  0.428571      2.000000
  0.200000  0.000000  0.428571     12.000000
  0.400000  0.000000  0.428571     12.000000
  0.200000  0.200000  0.428571     12.000000
  0.400000  0.200000  0.428571     12.000000
 
 Following cartesian coordinates:
            Coordinates               Weight
  0.000000  0.000000  0.000000      1.000000
  0.039317  0.022700  0.000000      6.000000
  0.078634  0.045399  0.000000      6.000000
  0.039317  0.068099  0.000000      6.000000
  0.078634  0.090799  0.000000      6.000000
  0.000000  0.000000  0.038751      2.000000
  0.039317  0.022700  0.038751     12.000000
  0.078634  0.045399  0.038751     12.000000
  0.039317  0.068099  0.038751     12.000000
  0.078634  0.090799  0.038751     12.000000
  0.000000  0.000000  0.077502      2.000000
  0.039317  0.022700  0.077502     12.000000
  0.078634  0.045399  0.077502     12.000000
  0.039317  0.068099  0.077502     12.000000
  0.078634  0.090799  0.077502     12.000000
  0.000000  0.000000  0.116253      2.000000
  0.039317  0.022700  0.116253     12.000000
  0.078634  0.045399  0.116253     12.000000
  0.039317  0.068099  0.116253     12.000000
  0.078634  0.090799  0.116253     12.000000
 
 
 Subroutine IBZKPT_HF returns following result:
 ==============================================
 
 Found    175 k-points in 1st BZ
 the following    175 k-points will be used (e.g. in the exchange kernel)
 Following reciprocal coordinates:   # in IRBZ
  0.000000  0.000000  0.000000    0.00571429   1 t-inv F
  0.200000  0.000000  0.000000    0.00571429   2 t-inv F
  0.400000  0.000000  0.000000    0.00571429   3 t-inv F
  0.200000  0.200000  0.000000    0.00571429   4 t-inv F
  0.400000  0.200000  0.000000    0.00571429   5 t-inv F
  0.000000  0.000000  0.142857    0.00571429   6 t-inv F
  0.200000  0.000000  0.142857    0.00571429   7 t-inv F
  0.400000  0.000000  0.142857    0.00571429   8 t-inv F
  0.200000  0.200000  0.142857    0.00571429   9 t-inv F
  0.400000  0.200000  0.142857    0.00571429  10 t-inv F
  0.000000  0.000000  0.285714    0.00571429  11 t-inv F
  0.200000  0.000000  0.285714    0.00571429  12 t-inv F
  0.400000  0.000000  0.285714    0.00571429  13 t-inv F
  0.200000  0.200000  0.285714    0.00571429  14 t-inv F
  0.400000  0.200000  0.285714    0.00571429  15 t-inv F
  0.000000  0.000000  0.428571    0.00571429  16 t-inv F
  0.200000  0.000000  0.428571    0.00571429  17 t-inv F
  0.400000  0.000000  0.428571    0.00571429  18 t-inv F
  0.200000  0.200000  0.428571    0.00571429  19 t-inv F
  0.400000  0.200000  0.428571    0.00571429  20 t-inv F
  0.000000 -0.200000 -0.000000    0.00571429   2 t-inv F
 -0.200000  0.200000  0.000000    0.00571429   2 t-inv F
  0.000000 -0.400000 -0.000000    0.00571429   3 t-inv F
 -0.400000  0.400000  0.000000    0.00571429   3 t-inv F
  0.200000 -0.400000 -0.000000    0.00571429   4 t-inv F
 -0.400000  0.200000  0.000000    0.00571429   4 t-inv F
 -0.200000  0.400000  0.000000    0.00571429   4 t-inv F
 -0.200000 -0.200000 -0.000000    0.00571429   4 t-inv F
  0.400000 -0.200000  0.000000    0.00571429   4 t-inv F
  0.200000 -0.600000 -0.000000    0.00571429   5 t-inv F
 -0.600000  0.400000  0.000000    0.00571429   5 t-inv F
 -0.400000  0.600000  0.000000    0.00571429   5 t-inv F
 -0.200000 -0.400000 -0.000000    0.00571429   5 t-inv F
  0.600000 -0.200000  0.000000    0.00571429   5 t-inv F
  0.000000 -0.000000 -0.142857    0.00571429   6 t-inv F
  0.000000 -0.200000 -0.142857    0.00571429   7 t-inv F
 -0.200000  0.200000  0.142857    0.00571429   7 t-inv F
  0.200000  0.000000 -0.142857    0.00571429   7 t-inv F
  0.000000 -0.200000  0.142857    0.00571429   7 t-inv F
 -0.200000  0.200000 -0.142857    0.00571429   7 t-inv F
  0.000000 -0.400000 -0.142857    0.00571429   8 t-inv F
 -0.400000  0.400000  0.142857    0.00571429   8 t-inv F
  0.400000  0.000000 -0.142857    0.00571429   8 t-inv F
  0.000000 -0.400000  0.142857    0.00571429   8 t-inv F
 -0.400000  0.400000 -0.142857    0.00571429   8 t-inv F
  0.200000 -0.400000 -0.142857    0.00571429   9 t-inv F
 -0.400000  0.200000  0.142857    0.00571429   9 t-inv F
  0.200000  0.200000 -0.142857    0.00571429   9 t-inv F
  0.200000 -0.400000  0.142857    0.00571429   9 t-inv F
 -0.400000  0.200000 -0.142857    0.00571429   9 t-inv F
 -0.200000  0.400000  0.142857    0.00571429   9 t-inv F
 -0.200000 -0.200000 -0.142857    0.00571429   9 t-inv F
  0.400000 -0.200000  0.142857    0.00571429   9 t-inv F
 -0.200000  0.400000 -0.142857    0.00571429   9 t-inv F
 -0.200000 -0.200000  0.142857    0.00571429   9 t-inv F
  0.400000 -0.200000 -0.142857    0.00571429   9 t-inv F
  0.200000 -0.600000 -0.142857    0.00571429  10 t-inv F
 -0.600000  0.400000  0.142857    0.00571429  10 t-inv F
  0.400000  0.200000 -0.142857    0.00571429  10 t-inv F
  0.200000 -0.600000  0.142857    0.00571429  10 t-inv F
 -0.600000  0.400000 -0.142857    0.00571429  10 t-inv F
 -0.400000  0.600000  0.142857    0.00571429  10 t-inv F
 -0.200000 -0.400000 -0.142857    0.00571429  10 t-inv F
  0.600000 -0.200000  0.142857    0.00571429  10 t-inv F
 -0.400000  0.600000 -0.142857    0.00571429  10 t-inv F
 -0.200000 -0.400000  0.142857    0.00571429  10 t-inv F
  0.600000 -0.200000 -0.142857    0.00571429  10 t-inv F
  0.000000 -0.000000 -0.285714    0.00571429  11 t-inv F
  0.000000 -0.200000 -0.285714    0.00571429  12 t-inv F
 -0.200000  0.200000  0.285714    0.00571429  12 t-inv F
  0.200000  0.000000 -0.285714    0.00571429  12 t-inv F
  0.000000 -0.200000  0.285714    0.00571429  12 t-inv F
 -0.200000  0.200000 -0.285714    0.00571429  12 t-inv F
  0.000000 -0.400000 -0.285714    0.00571429  13 t-inv F
 -0.400000  0.400000  0.285714    0.00571429  13 t-inv F
  0.400000  0.000000 -0.285714    0.00571429  13 t-inv F
  0.000000 -0.400000  0.285714    0.00571429  13 t-inv F
 -0.400000  0.400000 -0.285714    0.00571429  13 t-inv F
  0.200000 -0.400000 -0.285714    0.00571429  14 t-inv F
 -0.400000  0.200000  0.285714    0.00571429  14 t-inv F
  0.200000  0.200000 -0.285714    0.00571429  14 t-inv F
  0.200000 -0.400000  0.285714    0.00571429  14 t-inv F
 -0.400000  0.200000 -0.285714    0.00571429  14 t-inv F
 -0.200000  0.400000  0.285714    0.00571429  14 t-inv F
 -0.200000 -0.200000 -0.285714    0.00571429  14 t-inv F
  0.400000 -0.200000  0.285714    0.00571429  14 t-inv F
 -0.200000  0.400000 -0.285714    0.00571429  14 t-inv F
 -0.200000 -0.200000  0.285714    0.00571429  14 t-inv F
  0.400000 -0.200000 -0.285714    0.00571429  14 t-inv F
  0.200000 -0.600000 -0.285714    0.00571429  15 t-inv F
 -0.600000  0.400000  0.285714    0.00571429  15 t-inv F
  0.400000  0.200000 -0.285714    0.00571429  15 t-inv F
  0.200000 -0.600000  0.285714    0.00571429  15 t-inv F
 -0.600000  0.400000 -0.285714    0.00571429  15 t-inv F
 -0.400000  0.600000  0.285714    0.00571429  15 t-inv F
 -0.200000 -0.400000 -0.285714    0.00571429  15 t-inv F
  0.600000 -0.200000  0.285714    0.00571429  15 t-inv F
 -0.400000  0.600000 -0.285714    0.00571429  15 t-inv F
 -0.200000 -0.400000  0.285714    0.00571429  15 t-inv F
  0.600000 -0.200000 -0.285714    0.00571429  15 t-inv F
  0.000000 -0.000000 -0.428571    0.00571429  16 t-inv F
  0.000000 -0.200000 -0.428571    0.00571429  17 t-inv F
 -0.200000  0.200000  0.428571    0.00571429  17 t-inv F
  0.200000  0.000000 -0.428571    0.00571429  17 t-inv F
  0.000000 -0.200000  0.428571    0.00571429  17 t-inv F
 -0.200000  0.200000 -0.428571    0.00571429  17 t-inv F
  0.000000 -0.400000 -0.428571    0.00571429  18 t-inv F
 -0.400000  0.400000  0.428571    0.00571429  18 t-inv F
  0.400000  0.000000 -0.428571    0.00571429  18 t-inv F
  0.000000 -0.400000  0.428571    0.00571429  18 t-inv F
 -0.400000  0.400000 -0.428571    0.00571429  18 t-inv F
  0.200000 -0.400000 -0.428571    0.00571429  19 t-inv F
 -0.400000  0.200000  0.428571    0.00571429  19 t-inv F
  0.200000  0.200000 -0.428571    0.00571429  19 t-inv F
  0.200000 -0.400000  0.428571    0.00571429  19 t-inv F
 -0.400000  0.200000 -0.428571    0.00571429  19 t-inv F
 -0.200000  0.400000  0.428571    0.00571429  19 t-inv F
 -0.200000 -0.200000 -0.428571    0.00571429  19 t-inv F
  0.400000 -0.200000  0.428571    0.00571429  19 t-inv F
 -0.200000  0.400000 -0.428571    0.00571429  19 t-inv F
 -0.200000 -0.200000  0.428571    0.00571429  19 t-inv F
  0.400000 -0.200000 -0.428571    0.00571429  19 t-inv F
  0.200000 -0.600000 -0.428571    0.00571429  20 t-inv F
 -0.600000  0.400000  0.428571    0.00571429  20 t-inv F
  0.400000  0.200000 -0.428571    0.00571429  20 t-inv F
  0.200000 -0.600000  0.428571    0.00571429  20 t-inv F
 -0.600000  0.400000 -0.428571    0.00571429  20 t-inv F
 -0.400000  0.600000  0.428571    0.00571429  20 t-inv F
 -0.200000 -0.400000 -0.428571    0.00571429  20 t-inv F
  0.600000 -0.200000  0.428571    0.00571429  20 t-inv F
 -0.400000  0.600000 -0.428571    0.00571429  20 t-inv F
 -0.200000 -0.400000  0.428571    0.00571429  20 t-inv F
  0.600000 -0.200000 -0.428571    0.00571429  20 t-inv F
 -0.200000 -0.000000 -0.000000    0.00571429   2 t-inv T
 -0.000000  0.200000  0.000000    0.00571429   2 t-inv T
  0.200000 -0.200000 -0.000000    0.00571429   2 t-inv T
 -0.400000 -0.000000 -0.000000    0.00571429   3 t-inv T
 -0.000000  0.400000  0.000000    0.00571429   3 t-inv T
  0.400000 -0.400000 -0.000000    0.00571429   3 t-inv T
 -0.200000 -0.000000 -0.142857    0.00571429   7 t-inv T
 -0.000000  0.200000  0.142857    0.00571429   7 t-inv T
  0.200000 -0.200000 -0.142857    0.00571429   7 t-inv T
 -0.200000 -0.000000  0.142857    0.00571429   7 t-inv T
 -0.000000  0.200000 -0.142857    0.00571429   7 t-inv T
  0.200000 -0.200000  0.142857    0.00571429   7 t-inv T
 -0.400000 -0.000000 -0.142857    0.00571429   8 t-inv T
 -0.000000  0.400000  0.142857    0.00571429   8 t-inv T
  0.400000 -0.400000 -0.142857    0.00571429   8 t-inv T
 -0.400000 -0.000000  0.142857    0.00571429   8 t-inv T
 -0.000000  0.400000 -0.142857    0.00571429   8 t-inv T
  0.400000 -0.400000  0.142857    0.00571429   8 t-inv T
 -0.200000 -0.000000 -0.285714    0.00571429  12 t-inv T
 -0.000000  0.200000  0.285714    0.00571429  12 t-inv T
  0.200000 -0.200000 -0.285714    0.00571429  12 t-inv T
 -0.200000 -0.000000  0.285714    0.00571429  12 t-inv T
 -0.000000  0.200000 -0.285714    0.00571429  12 t-inv T
  0.200000 -0.200000  0.285714    0.00571429  12 t-inv T
 -0.400000 -0.000000 -0.285714    0.00571429  13 t-inv T
 -0.000000  0.400000  0.285714    0.00571429  13 t-inv T
  0.400000 -0.400000 -0.285714    0.00571429  13 t-inv T
 -0.400000 -0.000000  0.285714    0.00571429  13 t-inv T
 -0.000000  0.400000 -0.285714    0.00571429  13 t-inv T
  0.400000 -0.400000  0.285714    0.00571429  13 t-inv T
 -0.200000 -0.000000 -0.428571    0.00571429  17 t-inv T
 -0.000000  0.200000  0.428571    0.00571429  17 t-inv T
  0.200000 -0.200000 -0.428571    0.00571429  17 t-inv T
 -0.200000 -0.000000  0.428571    0.00571429  17 t-inv T
 -0.000000  0.200000 -0.428571    0.00571429  17 t-inv T
  0.200000 -0.200000  0.428571    0.00571429  17 t-inv T
 -0.400000 -0.000000 -0.428571    0.00571429  18 t-inv T
 -0.000000  0.400000  0.428571    0.00571429  18 t-inv T
  0.400000 -0.400000 -0.428571    0.00571429  18 t-inv T
 -0.400000 -0.000000  0.428571    0.00571429  18 t-inv T
 -0.000000  0.400000 -0.428571    0.00571429  18 t-inv T
  0.400000 -0.400000  0.428571    0.00571429  18 t-inv T


--------------------------------------------------------------------------------------------------------




 Dimension of arrays:
   k-points           NKPTS =     20   k-points in BZ     NKDIM =     20   number of bands    NBANDS=     32
   number of dos      NEDOS =    301   number of ions     NIONS =      3
   non local maximal  LDIM  =      6   non local SUM 2l+1 LMDIM =     18
   total plane-waves  NPLWV =  14112
   max r-space proj   IRMAX =   1932   max aug-charges    IRDMAX=   7827
   dimension x,y,z NGX =    28 NGY =   28 NGZ =   18
   dimension x,y,z NGXF=    56 NGYF=   56 NGZF=   36
   support grid    NGXF=    56 NGYF=   56 NGZF=   36
   ions per type =               1   1   1
   NGX,Y,Z   is equivalent  to a cutoff of   9.15,  9.15,  8.12 a.u.
   NGXF,Y,Z  is equivalent  to a cutoff of  18.30, 18.30, 16.23 a.u.

 SYSTEM =  unknown system                          
 POSCAR =  Na1 Sn1 S1                              

 Startparameter for this run:
   NWRITE =      2    write-flag & timer
   PREC   = normal    normal or accurate (medium, high low for compatibility)
   ISTART =      0    job   : 0-new  1-cont  2-samecut
   ICHARG =      2    charge: 1-file 2-atom 10-const
   ISPIN  =      1    spin polarized calculation?
   LNONCOLLINEAR =      F non collinear calculations
   LSORBIT =      F    spin-orbit coupling
   INIWAV =      1    electr: 0-lowe 1-rand  2-diag
   LASPH  =      F    aspherical Exc in radial PAW
 Electronic Relaxation 1
   ENCUT  =  400.0 eV  29.40 Ry    5.42 a.u.   8.30  8.30  6.01*2*pi/ulx,y,z
   ENINI  =  400.0     initial cutoff
   ENAUG  =  439.8 eV  augmentation charge cutoff
   NELM   =     60;   NELMIN=  2; NELMDL= -5     # of ELM steps 
   EDIFF  = 0.1E-05   stopping-criterion for ELM
   LREAL  =      T    real-space projection
   NLSPLINE    = F    spline interpolate recip. space projectors
   LCOMPAT=      F    compatible to vasp.4.4
   GGA_COMPAT  = T    GGA compatible to vasp.4.4-vasp.4.6
   LMAXPAW     = -100 max onsite density
   LMAXMIX     =    2 max onsite mixed and CHGCAR
   VOSKOWN=      0    Vosko Wilk Nusair interpolation
   ROPT   =   -0.00050  -0.00050  -0.00050
 Ionic relaxation
   EDIFFG = 0.1E-04   stopping-criterion for IOM
   NSW    =     73    number of steps for IOM
   NBLOCK =      1;   KBLOCK =     73    inner block; outer block 
   IBRION =      6    ionic relax: 0-MD 1-quasi-New 2-CG
   NFREE  =      4    steps in history (QN), initial steepest desc. (CG)
   ISIF   =      3    stress and relaxation
   IWAVPR =     11    prediction:  0-non 1-charg 2-wave 3-comb
   ISYM   =      2    0-nonsym 1-usesym 2-fastsym
   LCORR  =      T    Harris-Foulkes like correction to forces

   POTIM  = 0.0150    time-step for ionic-motion
   TEIN   =    0.0    initial temperature
   TEBEG  =    0.0;   TEEND  =   0.0 temperature during run
   SMASS  =  -3.00    Nose mass-parameter (am)
   estimated Nose-frequenzy (Omega)   =  0.10E-29 period in steps = 0.42E+48 mass=  -0.591E-27a.u.
   SCALEE = 1.0000    scale energy and forces
   NPACO  =    256;   APACO  = 10.0  distance and # of slots for P.C.
   PSTRESS=    0.0 pullay stress

  Mass of Ions in am
   POMASS =  22.99118.71 32.07
  Ionic Valenz
   ZVAL   =   7.00 14.00  6.00
  Atomic Wigner-Seitz radii
   RWIGS  =  -1.00 -1.00 -1.00
  virtual crystal weights 
   VCA    =   1.00  1.00  1.00
   NELECT =      27.0000    total number of electrons
   NUPDOWN=      -1.0000    fix difference up-down

 DOS related values:
   EMIN   =  10.00;   EMAX   =-10.00  energy-range for DOS
   EFERMI =   0.00
   ISMEAR =     0;   SIGMA  =   0.05  broadening in eV -4-tet -1-fermi 0-gaus

 Electronic relaxation 2 (details)
   IALGO  =     38    algorithm
   LDIAG  =      T    sub-space diagonalisation (order eigenvalues)
   LSUBROT=      F    optimize rotation matrix (better conditioning)
   TURBO    =      0    0=normal 1=particle mesh
   IRESTART =      0    0=no restart 2=restart with 2 vectors
   NREBOOT  =      0    no. of reboots
   NMIN     =      0    reboot dimension
   EREF     =   0.00    reference energy to select bands
   IMIX   =      4    mixing-type and parameters
     AMIX     =   0.40;   BMIX     =  1.00
     AMIX_MAG =   1.60;   BMIX_MAG =  1.00
     AMIN     =   0.10
     WC   =   100.;   INIMIX=   1;  MIXPRE=   1;  MAXMIX= -45

 Intra band minimization:
   WEIMIN = 0.0010     energy-eigenvalue tresh-hold
   EBREAK =  0.78E-08  absolut break condition
   DEPER  =   0.30     relativ break condition  

   TIME   =   0.40     timestep for ELM

  volume/ion in A,a.u.               =      27.54       185.83
  Fermi-wavevector in a.u.,A,eV,Ry     =   1.127666  2.130979 17.301577  1.271630
  Thomas-Fermi vector in A             =   2.264353

 Write flags
   LWAVE        =      F    write WAVECAR
   LDOWNSAMPLE  =      F    k-point downsampling of WAVECAR
   LCHARG       =      F    write CHGCAR
   LVTOT        =      F    write LOCPOT, total local potential
   LVHAR        =      F    write LOCPOT, Hartree potential only
   LELF         =      F    write electronic localiz. function (ELF)
   LORBIT       =      0    0 simple, 1 ext, 2 COOP (PROOUT), +10 PAW based schemes


 Dipole corrections
   LMONO  =      F    monopole corrections only (constant potential shift)
   LDIPOL =      F    correct potential (dipole corrections)
   IDIPOL =      0    1-x, 2-y, 3-z, 4-all directions 
   EPSILON=  1.0000000 bulk dielectric constant

 Exchange correlation treatment:
   GGA     =    --    GGA type
   LEXCH   =     8    internal setting for exchange type
   LIBXC   =     F    Libxc                    
   VOSKOWN =     0    Vosko Wilk Nusair interpolation
   LHFCALC =     F    Hartree Fock is set to
   LHFONE  =     F    Hartree Fock one center treatment
   AEXX    =    0.0000 exact exchange contribution

 Linear response parameters
   LEPSILON=     F    determine dielectric tensor
   LRPA    =     F    only Hartree local field effects (RPA)
   LNABLA  =     F    use nabla operator in PAW spheres
   LVEL    =     F    velocity operator in full k-point grid
   CSHIFT  =0.1000    complex shift for real part using Kramers Kronig
   OMEGAMAX=  -1.0    maximum frequency
   DEG_THRESHOLD= 0.2000000E-02 threshold for treating states as degnerate
   RTIME   =   -0.100 relaxation time in fs
  (WPLASMAI=    0.000 imaginary part of plasma frequency in eV, 0.658/RTIME)
   DFIELD  = 0.0000000 0.0000000 0.0000000 field for delta impulse in time

  Optional k-point grid parameters
   LKPOINTS_OPT  =     F    use optional k-point grid
   KPOINTS_OPT_MODE=     1    mode for optional k-point grid

 Orbital magnetization related:
   ORBITALMAG=     F  switch on orbital magnetization
   LCHIMAG   =     F  perturbation theory with respect to B field
   DQ        =  0.001000  dq finite difference perturbation B field
   LLRAUG    =     F  two centre corrections for induced B field



--------------------------------------------------------------------------------------------------------


 finite differences with symmetry
 charge density and potential will be updated during run
 non-spin polarized calculation
 Variant of blocked Davidson
 Davidson routine will perform the subspace rotation
 perform sub-space diagonalisation
    after iterative eigenvector-optimisation
 modified Broyden-mixing scheme, WC =      100.0
 initial mixing is a Kerker type mixing with AMIX =  0.4000 and BMIX =      1.0000
 Hartree-type preconditioning will be used
 using additional bands           18
 real space projection scheme for non local part
 use partial core corrections
 calculate Harris-corrections to forces   (improved forces if not selfconsistent)
 use gradient corrections 
 use of overlap-Matrix (Vanderbilt PP)
 Gauss-broadening in eV      SIGMA  =   0.05


--------------------------------------------------------------------------------------------------------


  energy-cutoff  :      400.00
  volume of cell :       82.61
      direct lattice vectors                 reciprocal lattice vectors
     5.086855820  0.000000000  0.000000000     0.196585088  0.113498454 -0.000000000
    -2.543427910  4.405346366  0.000000000     0.000000000  0.226996907  0.000000000
     0.000000000  0.000000000  3.686528404     0.000000000 -0.000000000  0.271257913

  length of vectors
     5.086855820  5.086855820  3.686528404     0.226996907  0.226996907  0.271257913



 k-points in units of 2pi/SCALE and weight: pymatgen with grid density = 600 / numbe
   0.00000000  0.00000000  0.00000000       0.006
   0.03931702  0.02269969  0.00000000       0.034
   0.07863404  0.04539938  0.00000000       0.034
   0.03931702  0.06809907  0.00000000       0.034
   0.07863404  0.09079876  0.00000000       0.034
   0.00000000  0.00000000  0.03875113       0.011
   0.03931702  0.02269969  0.03875113       0.069
   0.07863404  0.04539938  0.03875113       0.069
   0.03931702  0.06809907  0.03875113       0.069
   0.07863404  0.09079876  0.03875113       0.069
   0.00000000  0.00000000  0.07750226       0.011
   0.03931702  0.02269969  0.07750226       0.069
   0.07863404  0.04539938  0.07750226       0.069
   0.03931702  0.06809907  0.07750226       0.069
   0.07863404  0.09079876  0.07750226       0.069
   0.00000000  0.00000000  0.11625339       0.011
   0.03931702  0.02269969  0.11625339       0.069
   0.07863404  0.04539938  0.11625339       0.069
   0.03931702  0.06809907  0.11625339       0.069
   0.07863404  0.09079876  0.11625339       0.069

 k-points in reciprocal lattice and weights: pymatgen with grid density = 600 / numbe
   0.00000000  0.00000000  0.00000000       0.006
   0.20000000  0.00000000  0.00000000       0.034
   0.40000000  0.00000000  0.00000000       0.034
   0.20000000  0.20000000  0.00000000       0.034
   0.40000000  0.20000000  0.00000000       0.034
   0.00000000  0.00000000  0.14285714       0.011
   0.20000000  0.00000000  0.14285714       0.069
   0.40000000  0.00000000  0.14285714       0.069
   0.20000000  0.20000000  0.14285714       0.069
   0.40000000  0.20000000  0.14285714       0.069
   0.00000000  0.00000000  0.28571429       0.011
   0.20000000  0.00000000  0.28571429       0.069
   0.40000000  0.00000000  0.28571429       0.069
   0.20000000  0.20000000  0.28571429       0.069
   0.40000000  0.20000000  0.28571429       0.069
   0.00000000  0.00000000  0.42857143       0.011
   0.20000000  0.00000000  0.42857143       0.069
   0.40000000  0.00000000  0.42857143       0.069
   0.20000000  0.20000000  0.42857143       0.069
   0.40000000  0.20000000  0.42857143       0.069

 position of ions in fractional coordinates (direct lattice) 
   0.00000000  0.00000000  0.00000000
   0.66666679  0.33333314  0.00000000
   0.33333314  0.66666628  0.00000000

 position of ions in cartesian coordinates  (Angst):
   0.00000000  0.00000000  0.00000000
   2.54342903  1.46844794  0.00000000
  -0.00000000  2.93689588  0.00000000



--------------------------------------------------------------------------------------------------------


 k-point   1 :   0.0000 0.0000 0.0000  plane waves:    1495
 k-point   2 :   0.2000 0.0000 0.0000  plane waves:    1490
 k-point   3 :   0.4000 0.0000 0.0000  plane waves:    1488
 k-point   4 :   0.2000 0.2000 0.0000  plane waves:    1476
 k-point   5 :   0.4000 0.2000 0.0000  plane waves:    1496
 k-point   6 :   0.0000 0.0000 0.1429  plane waves:    1506
 k-point   7 :   0.2000 0.0000 0.1429  plane waves:    1509
 k-point   8 :   0.4000 0.0000 0.1429  plane waves:    1491
 k-point   9 :   0.2000 0.2000 0.1429  plane waves:    1495
 k-point  10 :   0.4000 0.2000 0.1429  plane waves:    1502
 k-point  11 :   0.0000 0.0000 0.2857  plane waves:    1506
 k-point  12 :   0.2000 0.0000 0.2857  plane waves:    1502
 k-point  13 :   0.4000 0.0000 0.2857  plane waves:    1505
 k-point  14 :   0.2000 0.2000 0.2857  plane waves:    1511
 k-point  15 :   0.4000 0.2000 0.2857  plane waves:    1502
 k-point  16 :   0.0000 0.0000 0.4286  plane waves:    1506
 k-point  17 :   0.2000 0.0000 0.4286  plane waves:    1511
 k-point  18 :   0.4000 0.0000 0.4286  plane waves:    1504
 k-point  19 :   0.2000 0.2000 0.4286  plane waves:    1507
 k-point  20 :   0.4000 0.2000 0.4286  plane waves:    1502

 maximum and minimum number of plane-waves per node :      1511     1476

 maximum number of plane-waves:      1511
 maximum index in each direction: 
   IXMAX=    8   IYMAX=    8   IZMAX=    6
   IXMIN=   -8   IYMIN=   -8   IZMIN=   -6


 serial   3D FFT for wavefunctions
 parallel 3D FFT for charge:
    minimum data exchange during FFTs selected (reduces bandwidth)


 total amount of memory used by VASP MPI-rank0    32192. kBytes
=======================================================================

   base      :      30000. kBytes
   nonlr-proj:        584. kBytes
   fftplans  :        205. kBytes
   grid      :        845. kBytes
   one-center:         46. kBytes
   wavefun   :        512. kBytes

     INWAV:  cpu time      0.0000: real time      0.0001
 Broyden mixing: mesh for mixing (old mesh)
   NGX = 17   NGY = 17   NGZ = 13
  (NGX  = 56   NGY  = 56   NGZ  = 36)
  gives a total of   3757 points

 initial charge density was supplied:
 charge density of overlapping atoms calculated
 number of electron      27.0000000 magnetization 
 keeping initial charge density in first step


--------------------------------------------------------------------------------------------------------


 Maximum index for non-local projection operator         1833
 Maximum index for augmentation-charges          341 (set IRDMAX)


--------------------------------------------------------------------------------------------------------


 First call to EWALD:  gamma=   0.407
 Maximum number of real-space cells 3x 3x 3
 Maximum number of reciprocal cells 3x 3x 2

    FEWALD:  cpu time      0.0007: real time      0.0008


--------------------------------------- Iteration      1(   1)  ---------------------------------------


    POTLOK:  cpu time      0.0068: real time      0.0069
    SETDIJ:  cpu time      0.0025: real time      0.0026
     EDDAV:  cpu time      0.3130: real time      0.3135
       DOS:  cpu time      0.0006: real time      0.0008
    --------------------------------------------
      LOOP:  cpu time      0.3229: real time      0.3238

 eigenvalue-minimisations  :  1280
 total energy-change (2. order) : 0.4547247E+02  (-0.1386195E+04)
 number of electron      27.0000000 magnetization 
 augmentation part       27.0000000 magnetization 

 Free energy of the ion-electron system (eV)
  ---------------------------------------------------
  alpha Z        PSCENC =        48.60074587
  Ewald energy   TEWEN  =     -1743.61278508
  -Hartree energ DENC   =      -904.08459159
  -exchange      EXHF   =         0.00000000
  -V(xc)+E(xc)   XCENC  =        93.21602592
  PAW double counting   =      2288.71403020    -2411.32759722
  entropy T*S    EENTRO =        -0.00339651
  eigenvalues    EBANDS =      -261.98641352
  atomic energy  EATOM  =      2935.95644725
  Solvation  Ediel_sol  =         0.00000000
  ---------------------------------------------------
  free energy    TOTEN  =        45.47246532 eV

  energy without entropy =       45.47586183  energy(sigma->0) =       45.47416357


--------------------------------------------------------------------------------------------------------




--------------------------------------- Iteration      1(   2)  ---------------------------------------


     EDDAV:  cpu time      0.5159: real time      0.5164
       DOS:  cpu time      0.0004: real time      0.0005
    --------------------------------------------
      LOOP:  cpu time      0.5163: real time      0.5170

 eigenvalue-minimisations  :  1664
 total energy-change (2. order) :-0.5442568E+02  (-0.5364216E+02)
 number of electron      27.0000000 magnetization 
 augmentation part       27.0000000 magnetization 

 Free energy of the ion-electron system (eV)
  ---------------------------------------------------
  alpha Z        PSCENC =        48.60074587
  Ewald energy   TEWEN  =     -1743.61278508
  -Hartree energ DENC   =      -904.08459159
  -exchange      EXHF   =         0.00000000
  -V(xc)+E(xc)   XCENC  =        93.21602592
  PAW double counting   =      2288.71403020    -2411.32759722
  entropy T*S    EENTRO =        -0.00159122
  eigenvalues    EBANDS =      -316.41390140
  atomic energy  EATOM  =      2935.95644725
  Solvation  Ediel_sol  =         0.00000000
  ---------------------------------------------------
  free energy    TOTEN  =        -8.95321727 eV

  energy without entropy =       -8.95162606  energy(sigma->0) =       -8.95242166


--------------------------------------------------------------------------------------------------------




--------------------------------------- Iteration      1(   3)  ---------------------------------------


     EDDAV:  cpu time      0.4638: real time      0.4639
       DOS:  cpu time      0.0003: real time      0.0004
    --------------------------------------------
      LOOP:  cpu time      0.4641: real time      0.4644

 eigenvalue-minimisations  :  1568
 total energy-change (2. order) :-0.1108748E+01  (-0.1108174E+01)
 number of electron      27.0000000 magnetization 
 augmentation part       27.0000000 magnetization 

 Free energy of the ion-electron system (eV)
  ---------------------------------------------------
  alpha Z        PSCENC =        48.60074587
  Ewald energy   TEWEN  =     -1743.61278508
  -Hartree energ DENC   =      -904.08459159
  -exchange      EXHF   =         0.00000000
  -V(xc)+E(xc)   XCENC  =        93.21602592
  PAW double counting   =      2288.71403020    -2411.32759722
  entropy T*S    EENTRO =        -0.00291187
  eigenvalues    EBANDS =      -317.52132861
  atomic energy  EATOM  =      2935.95644725
  Solvation  Ediel_sol  =         0.00000000
  ---------------------------------------------------
  free energy    TOTEN  =       -10.06196513 eV

  energy without entropy =      -10.05905326  energy(sigma->0) =      -10.06050919


--------------------------------------------------------------------------------------------------------




--------------------------------------- Iteration      1(   4)  ---------------------------------------


     EDDAV:  cpu time      1.3921: real time      1.3924
       DOS:  cpu time      0.0005: real time      0.0006
    --------------------------------------------
      LOOP:  cpu time      1.3926: real time      1.3931

 eigenvalue-minimisations  :  2240
 total energy-change (2. order) :-0.4422197E-02  (-0.4422186E-02)
 number of electron      27.0000000 magnetization 
 augmentation part       27.0000000 magnetization 

 Free energy of the ion-electron system (eV)
  ---------------------------------------------------
  alpha Z        PSCENC =        48.60074587
  Ewald energy   TEWEN  =     -1743.61278508
  -Hartree energ DENC   =      -904.08459159
  -exchange      EXHF   =         0.00000000
  -V(xc)+E(xc)   XCENC  =        93.21602592
  PAW double counting   =      2288.71403020    -2411.32759722
  entropy T*S    EENTRO =        -0.00291622
  eigenvalues    EBANDS =      -317.52574645
  atomic energy  EATOM  =      2935.95644725
  Solvation  Ediel_sol  =         0.00000000
  ---------------------------------------------------
  free energy    TOTEN  =       -10.06638732 eV

  energy without entropy =      -10.06347110  energy(sigma->0) =      -10.06492921


--------------------------------------------------------------------------------------------------------




--------------------------------------- Iteration      1(   5)  ---------------------------------------


     EDDAV:  cpu time      0.5246: real time      0.5249
       DOS:  cpu time      0.0003: real time      0.0005
    CHARGE:  cpu time      0.0101: real time      0.0104
    MIXING:  cpu time      0.0009: real time      0.0010
    --------------------------------------------
      LOOP:  cpu time      0.5360: real time      0.5368

 eigenvalue-minimisations  :  1568
 total energy-change (2. order) :-0.3354447E-05  (-0.3354640E-05)
 number of electron      26.9999932 magnetization 
 augmentation part       10.8723985 magnetization 

 Broyden mixing:
  rms(total) = 0.47556E+00    rms(broyden)= 0.47555E+00
  rms(prec ) = 0.11133E+01
  weight for this iteration     100.00

 Free energy of the ion-electron system (eV)
  ---------------------------------------------------
  alpha Z        PSCENC =        48.60074587
  Ewald energy   TEWEN  =     -1743.61278508
  -Hartree energ DENC   =      -904.08459159
  -exchange      EXHF   =         0.00000000
  -V(xc)+E(xc)   XCENC  =        93.21602592
  PAW double counting   =      2288.71403020    -2411.32759722
  entropy T*S    EENTRO =        -0.00291622
  eigenvalues    EBANDS =      -317.52574980
  atomic energy  EATOM  =      2935.95644725
  Solvation  Ediel_sol  =         0.00000000
  ---------------------------------------------------
  free energy    TOTEN  =       -10.06639068 eV

  energy without entropy =      -10.06347445  energy(sigma->0) =      -10.06493257


--------------------------------------------------------------------------------------------------------




--------------------------------------- Iteration      1(   6)  ---------------------------------------


    POTLOK:  cpu time      0.0053: real time      0.0055
    SETDIJ:  cpu time      0.0016: real time      0.0016
     EDDAV:  cpu time      0.6958: real time      0.6960
       DOS:  cpu time      0.0004: real time      0.0005
    CHARGE:  cpu time      0.0097: real time      0.0097
    MIXING:  cpu time      0.0005: real time      0.0005
    --------------------------------------------
      LOOP:  cpu time      0.7132: real time      0.7137

 eigenvalue-minimisations  :  2048
 total energy-change (2. order) : 0.6223304E+00  (-0.3442170E+00)
 number of electron      26.9999932 magnetization 
 augmentation part       10.9192691 magnetization 

 Broyden mixing:
  rms(total) = 0.34389E+00    rms(broyden)= 0.34389E+00
  rms(prec ) = 0.43295E+00
  weight for this iteration     100.00

 eigenvalues of (default mixing * dielectric matrix)
  average eigenvalue GAMMA=   1.1852
  1.1852

 Free energy of the ion-electron system (eV)
  ---------------------------------------------------
  alpha Z        PSCENC =        48.60074587
  Ewald energy   TEWEN  =     -1743.61278508
  -Hartree energ DENC   =      -901.60102224
  -exchange      EXHF   =         0.00000000
  -V(xc)+E(xc)   XCENC  =        93.47141464
  PAW double counting   =      2403.05093588    -2524.88049932
  entropy T*S    EENTRO =        -0.00125933
  eigenvalues    EBANDS =      -320.42803798
  atomic energy  EATOM  =      2935.95644725
  Solvation  Ediel_sol  =         0.00000000
  ---------------------------------------------------
  free energy    TOTEN  =        -9.44406032 eV

  energy without entropy =       -9.44280099  energy(sigma->0) =       -9.44343065


--------------------------------------------------------------------------------------------------------




--------------------------------------- Iteration      1(   7)  ---------------------------------------


    POTLOK:  cpu time      0.0110: real time      0.0113
    SETDIJ:  cpu time      0.0015: real time      0.0015
     EDDAV:  cpu time      0.5984: real time      0.6005
       DOS:  cpu time      0.0003: real time      0.0005
    CHARGE:  cpu time      0.0094: real time      0.0094
    MIXING:  cpu time      0.0002: real time      0.0002
    --------------------------------------------
      LOOP:  cpu time      0.6208: real time      0.6234

 eigenvalue-minimisations  :  1632
 total energy-change (2. order) : 0.3258283E-01  (-0.2870253E-02)
 number of electron      26.9999932 magnetization 
 augmentation part       10.9198549 magnetization 

 Broyden mixing:
  rms(total) = 0.18429E+00    rms(broyden)= 0.18429E+00
  rms(prec ) = 0.24413E+00
  weight for this iteration     100.00

 eigenvalues of (default mixing * dielectric matrix)
  average eigenvalue GAMMA=   1.6422
  1.0247  2.2596

 Free energy of the ion-electron system (eV)
  ---------------------------------------------------
  alpha Z        PSCENC =        48.60074587
  Ewald energy   TEWEN  =     -1743.61278508
  -Hartree energ DENC   =      -900.50881920
  -exchange      EXHF   =         0.00000000
  -V(xc)+E(xc)   XCENC  =        93.48358760
  PAW double counting   =      2525.37930133    -2647.81610315
  entropy T*S    EENTRO =        -0.00120858
  eigenvalues    EBANDS =      -320.89264352
  atomic energy  EATOM  =      2935.95644725
  Solvation  Ediel_sol  =         0.00000000
  ---------------------------------------------------
  free energy    TOTEN  =        -9.41147748 eV

  energy without entropy =       -9.41026890  energy(sigma->0) =       -9.41087319


--------------------------------------------------------------------------------------------------------




--------------------------------------- Iteration      1(   8)  ---------------------------------------


    POTLOK:  cpu time      0.0051: real time      0.0054
    SETDIJ:  cpu time      0.0015: real time      0.0015
     EDDAV:  cpu time      0.7808: real time      0.7868
       DOS:  cpu time      0.0004: real time      0.0005
    CHARGE:  cpu time      0.0097: real time      0.0097
    MIXING:  cpu time      0.0003: real time      0.0003
    --------------------------------------------
      LOOP:  cpu time      0.7979: real time      0.8043

 eigenvalue-minimisations  :  2112
 total energy-change (2. order) : 0.1604660E-01  (-0.3204328E-02)
 number of electron      26.9999932 magnetization 
 augmentation part       10.9191004 magnetization 

 Broyden mixing:
  rms(total) = 0.29308E-01    rms(broyden)= 0.29307E-01
  rms(prec ) = 0.42004E-01
  weight for this iteration     100.00

 eigenvalues of (default mixing * dielectric matrix)
  average eigenvalue GAMMA=   1.7916
  1.0095  2.1827  2.1827

 Free energy of the ion-electron system (eV)
  ---------------------------------------------------
  alpha Z        PSCENC =        48.60074587
  Ewald energy   TEWEN  =     -1743.61278508
  -Hartree energ DENC   =      -898.99058410
  -exchange      EXHF   =         0.00000000
  -V(xc)+E(xc)   XCENC  =        93.49638922
  PAW double counting   =      2686.36173434    -2809.61496695
  entropy T*S    EENTRO =        -0.00125562
  eigenvalues    EBANDS =      -321.59115582
  atomic energy  EATOM  =      2935.95644725
  Solvation  Ediel_sol  =         0.00000000
  ---------------------------------------------------
  free energy    TOTEN  =        -9.39543089 eV

  energy without entropy =       -9.39417527  energy(sigma->0) =       -9.39480308


--------------------------------------------------------------------------------------------------------




--------------------------------------- Iteration      1(   9)  ---------------------------------------


    POTLOK:  cpu time      0.0054: real time      0.0056
    SETDIJ:  cpu time      0.0016: real time      0.0016
     EDDAV:  cpu time      0.5973: real time      0.5994
       DOS:  cpu time      0.0003: real time      0.0005
    CHARGE:  cpu time      0.0094: real time      0.0094
    MIXING:  cpu time      0.0003: real time      0.0003
    --------------------------------------------
      LOOP:  cpu time      0.6143: real time      0.6168

 eigenvalue-minimisations  :  1536
 total energy-change (2. order) :-0.4821823E-03  (-0.9594925E-04)
 number of electron      26.9999932 magnetization 
 augmentation part       10.9200467 magnetization 

 Broyden mixing:
  rms(total) = 0.65320E-02    rms(broyden)= 0.65319E-02
  rms(prec ) = 0.15975E-01
  weight for this iteration     100.00

 eigenvalues of (default mixing * dielectric matrix)
  average eigenvalue GAMMA=   1.8304
  1.0147  1.0147  2.8875  2.4048

 Free energy of the ion-electron system (eV)
  ---------------------------------------------------
  alpha Z        PSCENC =        48.60074587
  Ewald energy   TEWEN  =     -1743.61278508
  -Hartree energ DENC   =      -898.85932417
  -exchange      EXHF   =         0.00000000
  -V(xc)+E(xc)   XCENC  =        93.48897111
  PAW double counting   =      2660.63204554    -2783.89502609
  entropy T*S    EENTRO =        -0.00126166
  eigenvalues    EBANDS =      -321.70572584
  atomic energy  EATOM  =      2935.95644725
  Solvation  Ediel_sol  =         0.00000000
  ---------------------------------------------------
  free energy    TOTEN  =        -9.39591307 eV

  energy without entropy =       -9.39465141  energy(sigma->0) =       -9.39528224


--------------------------------------------------------------------------------------------------------




--------------------------------------- Iteration      1(  10)  ---------------------------------------


    POTLOK:  cpu time      0.0052: real time      0.0055
    SETDIJ:  cpu time      0.0015: real time      0.0015
     EDDAV:  cpu time      0.5527: real time      0.5545
       DOS:  cpu time      0.0003: real time      0.0007
    CHARGE:  cpu time      0.0091: real time      0.0091
    MIXING:  cpu time      0.0002: real time      0.0002
    --------------------------------------------
      LOOP:  cpu time      0.5691: real time      0.5716

 eigenvalue-minimisations  :  1696
 total energy-change (2. order) :-0.7875411E-04  (-0.3718206E-04)
 number of electron      26.9999932 magnetization 
 augmentation part       10.9201196 magnetization 

 Broyden mixing:
  rms(total) = 0.13161E-02    rms(broyden)= 0.13160E-02
  rms(prec ) = 0.27216E-02
  weight for this iteration     100.00

 eigenvalues of (default mixing * dielectric matrix)
  average eigenvalue GAMMA=   1.8772
  3.1227  1.0120  1.0120  2.1196  2.1196

 Free energy of the ion-electron system (eV)
  ---------------------------------------------------
  alpha Z        PSCENC =        48.60074587
  Ewald energy   TEWEN  =     -1743.61278508
  -Hartree energ DENC   =      -898.76298926
  -exchange      EXHF   =         0.00000000
  -V(xc)+E(xc)   XCENC  =        93.48861863
  PAW double counting   =      2663.72147124    -2787.04328936
  entropy T*S    EENTRO =        -0.00128855
  eigenvalues    EBANDS =      -321.74292257
  atomic energy  EATOM  =      2935.95644725
  Solvation  Ediel_sol  =         0.00000000
  ---------------------------------------------------
  free energy    TOTEN  =        -9.39599183 eV

  energy without entropy =       -9.39470327  energy(sigma->0) =       -9.39534755


--------------------------------------------------------------------------------------------------------




--------------------------------------- Iteration      1(  11)  ---------------------------------------


    POTLOK:  cpu time      0.0052: real time      0.0055
    SETDIJ:  cpu time      0.0015: real time      0.0015
     EDDAV:  cpu time      0.7797: real time      0.7860
       DOS:  cpu time      0.0003: real time      0.0005
    CHARGE:  cpu time      0.0100: real time      0.0100
    MIXING:  cpu time      0.0002: real time      0.0003
    --------------------------------------------
      LOOP:  cpu time      0.7969: real time      0.8037

 eigenvalue-minimisations  :  1984
 total energy-change (2. order) :-0.1778413E-04  (-0.3498893E-05)
 number of electron      26.9999932 magnetization 
 augmentation part       10.9202000 magnetization 

 Broyden mixing:
  rms(total) = 0.88551E-03    rms(broyden)= 0.88551E-03
  rms(prec ) = 0.13629E-02
  weight for this iteration     100.00

 eigenvalues of (default mixing * dielectric matrix)
  average eigenvalue GAMMA=   1.7893
  3.2834  2.2224  2.2224  1.0628  1.0127  0.9322

 Free energy of the ion-electron system (eV)
  ---------------------------------------------------
  alpha Z        PSCENC =        48.60074587
  Ewald energy   TEWEN  =     -1743.61278508
  -Hartree energ DENC   =      -898.80371500
  -exchange      EXHF   =         0.00000000
  -V(xc)+E(xc)   XCENC  =        93.49053881
  PAW double counting   =      2664.35662763    -2787.67081303
  entropy T*S    EENTRO =        -0.00129331
  eigenvalues    EBANDS =      -321.71176276
  atomic energy  EATOM  =      2935.95644725
  Solvation  Ediel_sol  =         0.00000000
  ---------------------------------------------------
  free energy    TOTEN  =        -9.39600961 eV

  energy without entropy =       -9.39471630  energy(sigma->0) =       -9.39536295


--------------------------------------------------------------------------------------------------------




--------------------------------------- Iteration      1(  12)  ---------------------------------------


    POTLOK:  cpu time      0.0052: real time      0.0054
    SETDIJ:  cpu time      0.0015: real time      0.0015
     EDDAV:  cpu time      0.6167: real time      0.6195
       DOS:  cpu time      0.0003: real time      0.0004
    --------------------------------------------
      LOOP:  cpu time      0.6237: real time      0.6268

 eigenvalue-minimisations  :  1824
 total energy-change (2. order) :-0.5853108E-06  (-0.4313456E-06)
 number of electron      26.9999932 magnetization 
 augmentation part       10.9202000 magnetization 

 Free energy of the ion-electron system (eV)
  ---------------------------------------------------
  alpha Z        PSCENC =        48.60074587
  Ewald energy   TEWEN  =     -1743.61278508
  -Hartree energ DENC   =      -898.81316954
  -exchange      EXHF   =         0.00000000
  -V(xc)+E(xc)   XCENC  =        93.49021029
  PAW double counting   =      2663.31362922    -2786.62172973
  entropy T*S    EENTRO =        -0.00128987
  eigenvalues    EBANDS =      -321.70806861
  atomic energy  EATOM  =      2935.95644725
  Solvation  Ediel_sol  =         0.00000000
  ---------------------------------------------------
  free energy    TOTEN  =        -9.39601020 eV

  energy without entropy =       -9.39472033  energy(sigma->0) =       -9.39536526


--------------------------------------------------------------------------------------------------------




 average (electrostatic) potential at core
  the test charge radii are     0.9254  1.0894  0.9698
  (the norm of the test charge is              1.0000)
       1 -47.0511       2-103.6839       3 -87.6510



 E-fermi :   3.8641     XC(G=0):  -8.5032     alpha+bet : -8.9640

 Fermi energy:         3.8641060705

 k-point     1 :       0.0000    0.0000    0.0000
  band No.  band energies     occupation 
      1     -21.2552      2.00000
      2     -21.2552      2.00000
      3     -21.2527      2.00000
      4     -18.1142      2.00000
      5     -18.1142      2.00000
      6     -17.9894      2.00000
      7     -17.9794      2.00000
      8     -17.9794      2.00000
      9      -8.8826      2.00000
     10      -2.9168      2.00000
     11       0.3371      2.00000
     12       0.3372      2.00000
     13       2.8894      2.00000
     14       4.0283      0.00000
     15       4.0284      0.00000
     16       6.4460      0.00000
     17       7.9674      0.00000
     18       9.6892      0.00000
     19      12.7959      0.00000
     20      12.7959      0.00000
     21      14.3606      0.00000
     22      14.3606      0.00000
     23      14.4826      0.00000
     24      15.8232      0.00000
     25      15.8232      0.00000
     26      16.1325      0.00000
     27      16.1325      0.00000
     28      16.5441      0.00000
     29      17.5440      0.00000
     30      17.5440      0.00000
     31      17.6930      0.00000
     32      19.3941      0.00000

 k-point     2 :       0.2000    0.0000    0.0000
  band No.  band energies     occupation 
      1     -21.2554      2.00000
      2     -21.2549      2.00000
      3     -21.2527      2.00000
      4     -18.1166      2.00000
      5     -18.1141      2.00000
      6     -17.9878      2.00000
      7     -17.9795      2.00000
      8     -17.9795      2.00000
      9      -8.7806      2.00000
     10      -3.4365      2.00000
     11       0.1119      2.00000
     12       0.8082      2.00000
     13       2.9660      2.00000
     14       3.7351      1.99974
     15       4.6598      0.00000
     16       7.5651      0.00000
     17       7.7372      0.00000
     18      10.0948      0.00000
     19      11.2403      0.00000
     20      12.1367      0.00000
     21      13.8917      0.00000
     22      13.8947      0.00000
     23      13.9712      0.00000
     24      15.4327      0.00000
     25      15.5660      0.00000
     26      15.9058      0.00000
     27      16.3021      0.00000
     28      17.1039      0.00000
     29      17.5833      0.00000
     30      18.5636      0.00000
     31      18.7263      0.00000
     32      19.5659      0.00000

 k-point     3 :       0.4000    0.0000    0.0000
  band No.  band energies     occupation 
      1     -21.2560      2.00000
      2     -21.2542      2.00000
      3     -21.2528      2.00000
      4     -18.1205      2.00000
      5     -18.1142      2.00000
      6     -17.9850      2.00000
      7     -17.9796      2.00000
      8     -17.9795      2.00000
      9      -8.5959      2.00000
     10      -4.0986      2.00000
     11      -0.1779      2.00000
     12       1.0092      2.00000
     13       3.1014      2.00000
     14       4.3977      0.00000
     15       5.8636      0.00000
     16       7.3738      0.00000
     17       8.2481      0.00000
     18       9.8786      0.00000
     19      10.7156      0.00000
     20      11.8195      0.00000
     21      12.5735      0.00000
     22      13.2305      0.00000
     23      13.4509      0.00000
     24      14.3238      0.00000
     25      14.3941      0.00000
     26      16.8298      0.00000
     27      16.9576      0.00000
     28      17.2613      0.00000
     29      18.7940      0.00000
     30      18.8738      0.00000
     31      19.8168      0.00000
     32      19.9223      0.00000

 k-point     4 :       0.2000    0.2000    0.0000
  band No.  band energies     occupation 
      1     -21.2556      2.00000
      2     -21.2545      2.00000
      3     -21.2528      2.00000
      4     -18.1189      2.00000
      5     -18.1150      2.00000
      6     -17.9856      2.00000
      7     -17.9797      2.00000
      8     -17.9794      2.00000
      9      -8.6341      2.00000
     10      -3.9571      2.00000
     11      -0.4482      2.00000
     12       1.6033      2.00000
     13       3.0741      2.00000
     14       3.7100      1.99999
     15       5.6663      0.00000
     16       7.4478      0.00000
     17       8.4181      0.00000
     18       9.7280      0.00000
     19      11.3515      0.00000
     20      11.5015      0.00000
     21      12.7516      0.00000
     22      12.8078      0.00000
     23      14.2281      0.00000
     24      14.6526      0.00000
     25      15.0990      0.00000
     26      15.9653      0.00000
     27      16.1421      0.00000
     28      17.2879      0.00000
     29      18.5816      0.00000
     30      18.7721      0.00000
     31      19.4642      0.00000
     32      19.9920      0.00000

 k-point     5 :       0.4000    0.2000    0.0000
  band No.  band energies     occupation 
      1     -21.2558      2.00000
      2     -21.2545      2.00000
      3     -21.2528      2.00000
      4     -18.1201      2.00000
      5     -18.1159      2.00000
      6     -17.9843      2.00000
      7     -17.9798      2.00000
      8     -17.9794      2.00000
      9      -8.5350      2.00000
     10      -4.2298      2.00000
     11      -0.7834      2.00000
     12       2.0031      2.00000
     13       3.1463      2.00000
     14       4.2183      0.00000
     15       5.8460      0.00000
     16       7.2742      0.00000
     17       8.3150      0.00000
     18      10.1759      0.00000
     19      10.7571      0.00000
     20      12.1674      0.00000
     21      12.3203      0.00000
     22      12.5312      0.00000
     23      13.9278      0.00000
     24      14.0778      0.00000
     25      14.8620      0.00000
     26      15.4098      0.00000
     27      16.8370      0.00000
     28      17.2917      0.00000
     29      17.7910      0.00000
     30      18.3047      0.00000
     31      19.5093      0.00000
     32      21.1415      0.00000

 k-point     6 :       0.0000    0.0000    0.1429
  band No.  band energies     occupation 
      1     -21.2566      2.00000
      2     -21.2548      2.00000
      3     -21.2548      2.00000
      4     -18.1139      2.00000
      5     -18.1139      2.00000
      6     -17.9826      2.00000
      7     -17.9826      2.00000
      8     -17.9791      2.00000
      9      -8.8166      2.00000
     10      -2.7666      2.00000
     11       0.4107      2.00000
     12       0.4108      2.00000
     13       2.2491      2.00000
     14       4.1771      0.00000
     15       4.1772      0.00000
     16       6.2949      0.00000
     17       7.1658      0.00000
     18      11.1316      0.00000
     19      11.9625      0.00000
     20      11.9625      0.00000
     21      13.3575      0.00000
     22      13.3576      0.00000
     23      14.7191      0.00000
     24      14.7192      0.00000
     25      14.7864      0.00000
     26      15.6743      0.00000
     27      17.6514      0.00000
     28      17.6514      0.00000
     29      18.9199      0.00000
     30      18.9199      0.00000
     31      19.0366      0.00000
     32      19.8627      0.00000

 k-point     7 :       0.2000    0.0000    0.1429
  band No.  band energies     occupation 
      1     -21.2567      2.00000
      2     -21.2551      2.00000
      3     -21.2545      2.00000
      4     -18.1163      2.00000
      5     -18.1139      2.00000
      6     -17.9827      2.00000
      7     -17.9827      2.00000
      8     -17.9774      2.00000
      9      -8.7178      2.00000
     10      -3.2870      2.00000
     11       0.1925      2.00000
     12       0.8852      2.00000
     13       2.3644      2.00000
     14       3.9254      0.08277
     15       4.7974      0.00000
     16       6.2140      0.00000
     17       8.0854      0.00000
     18      10.8245      0.00000
     19      11.3708      0.00000
     20      11.4974      0.00000
     21      12.8725      0.00000
     22      13.3105      0.00000
     23      14.2194      0.00000
     24      14.8278      0.00000
     25      15.2512      0.00000
     26      16.5843      0.00000
     27      16.6215      0.00000
[...]


    CHARGE:  cpu time      0.0114: real time      0.0114
    FORLOC:  cpu time      0.0002: real time      0.0002
    FORNL :  cpu time      0.0519: real time      0.0520
    STRESS:  cpu time      0.1552: real time      0.1552
    FORCOR:  cpu time      0.0044: real time      0.0044
    FORHAR:  cpu time      0.0013: real time      0.0013
    MIXING:  cpu time      0.0002: real time      0.0002
    OFIELD:  cpu time      0.0000: real time      0.0000

  FORCE on cell =-STRESS in cart. coord.  units (eV):
  Direction    XX          YY          ZZ          XY          YZ          ZX
  --------------------------------------------------------------------------------------
  Alpha Z    48.60075    48.60075    48.60075
  Ewald    -436.85936  -436.85995  -869.92269    -0.00006    -0.00000    -0.00000
  Hartree   384.69210   384.69211   129.40817    -0.00003     0.00000    -0.00000
  E(xc)    -128.93648  -128.93663  -129.40717    -0.00013     0.00000     0.00000
  Local    -406.67306  -406.67272   264.36011    -0.00002     0.00000     0.00000
  n-local   120.68463   120.70507   122.60261     1.10610     0.31732     0.34493
  augment   202.73214   202.73240   201.81401     0.00020     0.00000    -0.00000
  Kinetic   215.59464   215.55048   232.48483    -2.99320    -0.04421    -0.05913
  Fock        0.00000     0.00000     0.00000     0.00000     0.00000     0.00000
  -------------------------------------------------------------------------------------
  Total      -0.17655    -0.17655    -0.05937     0.00000     0.00000    -0.00000
  in kB      -3.42404    -3.42404    -1.15144     0.00000     0.00000    -0.00000
  external pressure =       -2.67 kB  Pullay stress =        0.00 kB


 VOLUME and BASIS-vectors are now :
 -----------------------------------------------------------------------------
  energy-cutoff  :      400.00
  volume of cell :       82.61
      direct lattice vectors                 reciprocal lattice vectors
     5.086855820  0.000000000  0.000000000     0.196585088  0.113498454 -0.000000000
    -2.543427910  4.405346366  0.000000000     0.000000000  0.226996907  0.000000000
     0.000000000  0.000000000  3.686528404     0.000000000 -0.000000000  0.271257913

  length of vectors
     5.086855820  5.086855820  3.686528404     0.226996907  0.226996907  0.271257913


 FORCES acting on ions
    electron-ion (+dipol)            ewald-force                    non-local-force                 convergence-correction
 -----------------------------------------------------------------------------------------------
   -.768E-04 0.447E-04 -.686E+00   0.149E-03 -.208E-03 0.645E+00   -.201E-17 0.338E-17 0.428E-01   0.509E-08 -.545E-08 0.202E-02
   -.509E-03 0.357E-03 -.120E+01   -.277E-03 0.161E-04 0.129E+01   0.196E-15 -.504E-16 -.986E-01   0.222E-08 -.602E-08 -.288E-02
   -.655E-04 0.869E-03 0.181E+01   0.128E-03 0.192E-03 -.193E+01   -.403E-15 0.938E-16 0.135E+00   -.481E-09 -.346E-08 -.197E-02
 -----------------------------------------------------------------------------------------------
   -.652E-03 0.127E-02 -.718E-01   -.118E-14 -.141E-15 -.888E-15   -.209E-15 0.468E-16 0.795E-01   0.682E-08 -.149E-07 -.283E-02


 POSITION                                       TOTAL-FORCE (eV/Angst)
 -----------------------------------------------------------------------------------
      0.00000      0.00000      0.00000        -0.000000      0.000000      0.001827
      2.54343      1.46845      0.00000         0.000000     -0.000000     -0.013773
     -0.00000      2.93690     -0.03000        -0.000000     -0.000000      0.011946
 -----------------------------------------------------------------------------------
    total drift:                               -0.000652      0.001271      0.004957


--------------------------------------------------------------------------------------------------------



  FREE ENERGIE OF THE ION-ELECTRON SYSTEM (eV)
  ---------------------------------------------------
  free  energy   TOTEN  =        -9.39582487 eV

  energy  without entropy=       -9.39453895  energy(sigma->0) =       -9.39518191

 d Force =-0.1453399E-03[-0.179E-03,-0.111E-03]  d Energy =-0.1584544E-03 0.131E-04
 d Force = 0.2175600E-01[ 0.290E-01, 0.145E-01]  d Ewald  = 0.2175726E-01-0.125E-05


--------------------------------------------------------------------------------------------------------


    POTLOK:  cpu time      0.0065: real time      0.0065


--------------------------------------------------------------------------------------------------------


 Finite differences progress:
  Degree of freedom:  12/ 12
  Displacement:        4/  4
  Total:              48/ 48


--------------------------------------------------------------------------------------------------------



  ELASTIC MODULI  (kBar)
 Direction    XX          YY          ZZ          XY          YZ          ZX
 --------------------------------------------------------------------------------
 XX         642.4768    607.6878    -34.3128     -0.0000     -0.0000     -0.0000
 YY         631.5673    666.0839    -25.9751     -0.0000     -0.0000     -0.0000
 ZZ         -37.1834    -37.1834    416.0456     -0.0000      0.0000      0.0000
 XY          -0.5157     -0.4336     -0.0451     55.0788     -0.0000     -0.0000
 YZ          -4.3661     -4.3091     -4.2861     -0.0000      2.5711     -0.0000
 ZX          -3.4806     -3.2877     -3.2741     -0.0000     -0.0000     -4.2939
 --------------------------------------------------------------------------------


  SYMMETRIZED ELASTIC MODULI (kBar)
 Direction    XX          YY          ZZ          XY          YZ          ZX
 --------------------------------------------------------------------------------
 XX         673.1566    600.7514    -33.6637      0.0000     -0.0000      0.0000
 YY         600.7514    673.1566    -33.6637      0.0000     -0.0000      0.0000
 ZZ         -33.6637    -33.6637    416.0456     -0.0000      0.0000      0.0000
 XY           0.0000      0.0000     -0.0000     36.2026      0.0000     -0.0000
 YZ           0.0000      0.0000      0.0000      0.0000     -0.8613      0.0000
 ZX           0.0000      0.0000      0.0000      0.0000      0.0000     -0.8613
 --------------------------------------------------------------------------------

 INTERNAL STRAIN TENSORS FROM STRAINED CELLS
 ============================================

 INTERNAL STRAIN TENSOR FOR ION    1 for displacements in x,y,z  (eV/Angst):
          X           Y           Z          XY          YZ          ZX
  --------------------------------------------------------------------------------
  x    -0.00000    -0.00000    -0.00000     3.46860    -0.00000    -0.00000
  y     3.01556    -2.84595     0.00000    -0.00040    -0.00014    -0.00040
  z     0.00000    -0.00000    -0.00000     0.00000     0.29996    -0.00000

 INTERNAL STRAIN TENSOR FOR ION    2 for displacements in x,y,z  (eV/Angst):
          X           Y           Z          XY          YZ          ZX
  --------------------------------------------------------------------------------
  x    -0.00000     0.00000     0.00000    -6.47308     0.00000     0.00000
  y    -5.93459     6.02918    -0.00000    -0.00012     0.00015    -0.00045
  z     0.00000     0.00000    -0.00000    -0.00000    -0.41047     0.00000

 INTERNAL STRAIN TENSOR FOR ION    3 for displacements in x,y,z  (eV/Angst):
          X           Y           Z          XY          YZ          ZX
  --------------------------------------------------------------------------------
  x     0.00000     0.00000    -0.00000     3.00448    -0.00000    -0.00000
  y     2.91903    -3.18323     0.00000     0.00052    -0.00001     0.00085
  z    -0.00000     0.00000     0.00000     0.00000     0.11051    -0.00000

 INTERNAL STRAIN TENSORS FROM DISPLACED ATOMS
 ============================================

 INTERNAL STRAIN TENSOR FOR ION    1 for displacements in x,y,z  (eV/Angst):
          X           Y           Z          XY          YZ          ZX
  --------------------------------------------------------------------------------
  x     0.00000    -0.00000    -0.00000     3.10838     0.00000     0.00000
  y     3.10838    -3.10838     0.00000    -0.00000     0.00000     0.00000
  z     0.00000     0.00000     0.00000    -0.00000     0.00000     0.00000

 INTERNAL STRAIN TENSOR FOR ION    2 for displacements in x,y,z  (eV/Angst):
          X           Y           Z          XY          YZ          ZX
  --------------------------------------------------------------------------------
  x    -0.00000     0.00000     0.00000    -5.99877     0.00000     0.00000
  y    -5.99877     5.99877     0.00000     0.00000     0.00000     0.00000
  z     0.00000     0.00000     0.00000     0.00000     0.00000     0.00000

 INTERNAL STRAIN TENSOR FOR ION    3 for displacements in x,y,z  (eV/Angst):
          X           Y           Z          XY          YZ          ZX
  --------------------------------------------------------------------------------
  x     0.00000    -0.00000     0.00000     3.17880     0.00000     0.00000
  y     3.17880    -3.17880     0.00000    -0.00000     0.00000     0.00000
  z     0.00000     0.00000     0.00000    -0.00000     0.00000    -0.00000


--------------------------------------------------------------------------------------------------------



 Eigenvectors and eigenvalues of the dynamical matrix
 ----------------------------------------------------


   1 f  =    6.107331 THz    38.373491 2PiTHz  203.718625 cm-1    25.257879 meV
             X         Y         Z           dx          dy          dz
      0.000000  0.000000  0.000000     0.000001    0.933514    0.000000  
      2.543429  1.468448  0.000000    -0.000000   -0.337019   -0.000000  
     -0.000000  2.936896  0.000000    -0.000000   -0.122353   -0.000000  

   2 f  =    6.107331 THz    38.373491 2PiTHz  203.718625 cm-1    25.257879 meV
             X         Y         Z           dx          dy          dz
      0.000000  0.000000  0.000000    -0.933514    0.000001   -0.000000  
      2.543429  1.468448  0.000000     0.337019   -0.000000   -0.000000  
     -0.000000  2.936896  0.000000     0.122353   -0.000000    0.000000  

   3 f  =    2.212233 THz    13.899868 2PiTHz   73.792140 cm-1     9.149055 meV
             X         Y         Z           dx          dy          dz
      0.000000  0.000000  0.000000     0.000000    0.000000   -0.039558  
      2.543429  1.468448  0.000000     0.000000    0.000000   -0.383632  
     -0.000000  2.936896  0.000000     0.000000    0.000000    0.922638  

   4 f  =    0.190659 THz     1.197949 2PiTHz    6.359716 cm-1     0.788504 meV
             X         Y         Z           dx          dy          dz
      0.000000  0.000000  0.000000    -0.000000   -0.000000    0.307368  
      2.543429  1.468448  0.000000    -0.000000   -0.000000    0.873918  
     -0.000000  2.936896  0.000000    -0.000000   -0.000000    0.376552  

   5 f  =    0.108541 THz     0.681981 2PiTHz    3.620527 cm-1     0.448888 meV
             X         Y         Z           dx          dy          dz
      0.000000  0.000000  0.000000    -0.000172    0.354125    0.000000  
      2.543429  1.468448  0.000000    -0.000395    0.813269    0.000000  
     -0.000000  2.936896  0.000000    -0.000224    0.461724    0.000000  

   6 f  =    0.108541 THz     0.681981 2PiTHz    3.620527 cm-1     0.448888 meV
             X         Y         Z           dx          dy          dz
      0.000000  0.000000  0.000000     0.354125    0.000172    0.000000  
      2.543429  1.468448  0.000000     0.813269    0.000395    0.000000  
     -0.000000  2.936896  0.000000     0.461724    0.000224    0.000000  

   7 f/i=    3.423525 THz    21.510639 2PiTHz  114.196488 cm-1    14.158554 meV
             X         Y         Z           dx          dy          dz
      0.000000  0.000000  0.000000    -0.056104   -0.000000   -0.000000  
      2.543429  1.468448  0.000000    -0.474354   -0.000002   -0.000000  
     -0.000000  2.936896  0.000000     0.878545    0.000003    0.000000  

   8 f/i=    3.423525 THz    21.510639 2PiTHz  114.196488 cm-1    14.158554 meV
             X         Y         Z           dx          dy          dz
      0.000000  0.000000  0.000000     0.000000   -0.056104   -0.000000  
      2.543429  1.468448  0.000000     0.000002   -0.474354    0.000000  
     -0.000000  2.936896  0.000000    -0.000003    0.878545    0.000000  

   9 f/i=    3.758897 THz    23.617844 2PiTHz  125.383297 cm-1    15.545541 meV
             X         Y         Z           dx          dy          dz
      0.000000  0.000000  0.000000     0.000000    0.000000   -0.950768  
      2.543429  1.468448  0.000000     0.000000    0.000000    0.298485  
     -0.000000  2.936896  0.000000    -0.000000   -0.000000    0.083346  



--------------------------------------------------------------------------------------------------------



 ELASTIC MODULI CONTR FROM IONIC RELAXATION (kBar)
 Direction    XX          YY          ZZ          XY          YZ          ZX
 --------------------------------------------------------------------------------
 XX        -775.7473    775.7473     -0.0000     -0.0000      0.0000     -0.0000
 YY         775.7473   -775.7473      0.0000      0.0000     -0.0000      0.0000
 ZZ          -0.0000      0.0000     -0.0000     -0.0000      0.0000     -0.0000
 XY          -0.0000      0.0000     -0.0000   -775.7473      0.0000     -0.0000
 YZ           0.0000     -0.0000      0.0000      0.0000     -0.0000      0.0000
 ZX          -0.0000      0.0000     -0.0000     -0.0000      0.0000     -0.0000
 --------------------------------------------------------------------------------


 TOTAL ELASTIC MODULI (kBar)
 Direction    XX          YY          ZZ          XY          YZ          ZX
 --------------------------------------------------------------------------------
 XX        -102.5908   1376.4987    -33.6637     -0.0000     -0.0000     -0.0000
 YY        1376.4987   -102.5908    -33.6637      0.0000     -0.0000      0.0000
 ZZ         -33.6637    -33.6637    416.0456     -0.0000      0.0000      0.0000
 XY          -0.0000      0.0000     -0.0000   -739.5447      0.0000     -0.0000
 YZ           0.0000      0.0000      0.0000      0.0000     -0.8613      0.0000
 ZX          -0.0000      0.0000      0.0000     -0.0000      0.0000     -0.8613
 --------------------------------------------------------------------------------



--------------------------------------------------------------------------------------------------------


  LATTYP: Found a hexagonal cell.
 ALAT       =     5.0868558200
 C/A-ratio  =     0.7247165115
  
  Lattice vectors:
  
 A1 = (   5.0868558200,   0.0000000000,   0.0000000000)
 A2 = (  -2.5434279100,   4.4053463655,   0.0000000000)
 A3 = (   0.0000000000,   0.0000000000,   3.6865284043)


Analysis of symmetry for initial positions (statically):
=====================================================================
 Subroutine PRICEL returns:
 Original cell was already a primitive cell.
 

 Routine SETGRP: Setting up the symmetry group for a 
 hexagonal supercell.


 Subroutine GETGRP returns: Found 12 space group operations
 (whereof 12 operations were pure point group operations)
 out of a pool of 24 trial point group operations.


The static configuration has the point symmetry D_3h.


Analysis of symmetry for dynamics (positions and initial velocities):
=====================================================================
 Subroutine PRICEL returns:
 Original cell was already a primitive cell.
 

 Routine SETGRP: Setting up the symmetry group for a 
 hexagonal supercell.


 Subroutine GETGRP returns: Found 12 space group operations
 (whereof 12 operations were pure point group operations)
 out of a pool of 24 trial point group operations.


The dynamic configuration has the point symmetry D_3h.


 Subroutine INISYM returns: Found 12 space group operations
 (whereof 12 operations are pure point group operations),
 and found     1 'primitive' translations


 KPOINTS: pymatgen with grid density = 600 / numbe

Automatic generation of k-mesh.
 Grid dimensions read from file:
 generate k-points for:    5    5    7

 Generating k-lattice:

  Cartesian coordinates                     Fractional coordinates (reciprocal lattice)
     0.039317018  0.022699691 -0.000000000     0.200000000  0.000000000  0.000000000
     0.000000000  0.045399381  0.000000000     0.000000000  0.200000000  0.000000000
     0.000000000 -0.000000000  0.038751130     0.000000000  0.000000000  0.142857143

  Length of vectors
     0.045399381  0.045399381  0.038751130

  Shift w.r.t. Gamma in fractional coordinates (k-lattice)
     0.000000000  0.000000000  0.000000000

 
 Subroutine IBZKPT returns following result:
 ===========================================
 
 Found     20 irreducible k-points:
 
 Following reciprocal coordinates:
            Coordinates               Weight
  0.000000  0.000000  0.000000      1.000000
  0.200000  0.000000  0.000000      6.000000
  0.400000  0.000000  0.000000      6.000000
  0.200000  0.200000  0.000000      6.000000
  0.400000  0.200000  0.000000      6.000000
  0.000000  0.000000  0.142857      2.000000
  0.200000  0.000000  0.142857     12.000000
  0.400000  0.000000  0.142857     12.000000
  0.200000  0.200000  0.142857     12.000000
  0.400000  0.200000  0.142857     12.000000
  0.000000  0.000000  0.285714      2.000000
  0.200000  0.000000  0.285714     12.000000
  0.400000  0.000000  0.285714     12.000000
  0.200000  0.200000  0.285714     12.000000
  0.400000  0.200000  0.285714     12.000000
  0.000000  0.000000  0.428571      2.000000
  0.200000  0.000000  0.428571     12.000000
  0.400000  0.000000  0.428571     12.000000
  0.200000  0.200000  0.428571     12.000000
  0.400000  0.200000  0.428571     12.000000
 
 Following cartesian coordinates:
            Coordinates               Weight
  0.000000  0.000000  0.000000      1.000000
  0.039317  0.022700  0.000000      6.000000
  0.078634  0.045399  0.000000      6.000000
  0.039317  0.068099  0.000000      6.000000
  0.078634  0.090799  0.000000      6.000000
  0.000000  0.000000  0.038751      2.000000
  0.039317  0.022700  0.038751     12.000000
  0.078634  0.045399  0.038751     12.000000
  0.039317  0.068099  0.038751     12.000000
  0.078634  0.090799  0.038751     12.000000
  0.000000  0.000000  0.077502      2.000000
  0.039317  0.022700  0.077502     12.000000
  0.078634  0.045399  0.077502     12.000000
  0.039317  0.068099  0.077502     12.000000
  0.078634  0.090799  0.077502     12.000000
  0.000000  0.000000  0.116253      2.000000
  0.039317  0.022700  0.116253     12.000000
  0.078634  0.045399  0.116253     12.000000
  0.039317  0.068099  0.116253     12.000000
  0.078634  0.090799  0.116253     12.000000
 
     LOOP+:  cpu time      3.0160: real time      3.0281
    4ORBIT:  cpu time      0.0000: real time      0.0000

 total amount of memory used by VASP MPI-rank0    32192. kBytes
=======================================================================

   base      :      30000. kBytes
   nonlr-proj:        584. kBytes
   fftplans  :        205. kBytes
   grid      :        845. kBytes
   one-center:         46. kBytes
   wavefun   :        512. kBytes

  
  
 General timing and accounting informations for this job:
 ========================================================
  
                  Total CPU time used (sec):      386.635
                            User time (sec):      385.545
                          System time (sec):        1.090
                         Elapsed time (sec):      389.788
  
                   Maximum memory used (kb):      134588.
                   Average memory used (kb):          N/A
  
                          Minor page faults:        39854
                          Major page faults:          152
                 Voluntary context switches:         2029
