 vasp.6.3.2 27Jun22 (build Jun 14 2024 17:29:11) complex                         
 executed on             LinuxGNU date 2026.03.30  07:47:40
 running on    8 total cores
 distrk:  each k-point on    8 cores,    1 groups
 distr:  one band on NCORE=   1 cores,    8 groups


--------------------------------------------------------------------------------------------------------


 INCAR:
   EDIFF = 1e-06
   ENCUT = 400.0
   IBRION = 6
   ISIF = 3
   ISMEAR = 0
   LCHARG = False
   LREAL = Auto
   LWAVE = False
   NFREE = 4
   NSW = 1
   POTIM = 0.015
   SIGMA = 0.05

 POTCAR:    PAW_PBE Na_pv 19Sep2006               
 POTCAR:    PAW_PBE Sn_d 06Sep2000                
 POTCAR:    PAW_PBE S 06Sep2000                   
 -----------------------------------------------------------------------------
|                                                                             |
|           W    W    AA    RRRRR   N    N  II  N    N   GGGG   !!!           |
|           W    W   A  A   R    R  NN   N  II  NN   N  G    G  !!!           |
|           W    W  A    A  R    R  N N  N  II  N N  N  G       !!!           |
|           W WW W  AAAAAA  RRRRR   N  N N  II  N  N N  G  GGG   !            |
|           WW  WW  A    A  R   R   N   NN  II  N   NN  G    G                |
|           W    W  A    A  R    R  N    N  II  N    N   GGGG   !!!           |
|                                                                             |
|     For optimal performance we recommend to set                             |
|       NCORE = 2 up to number-of-cores-per-socket                            |
|     NCORE specifies how many cores store one orbital (NPAR=cpu/NCORE).      |
|     This setting can greatly improve the performance of VASP for DFT.       |
|     The default, NCORE=1 might be grossly inefficient on modern             |
|     multi-core architectures or massively parallel machines. Do your        |
|     own testing! More info at https://www.vasp.at/wiki/index.php/NCORE      |
|     Unfortunately you need to use the default for GW and RPA                |
|     calculations (for HF NCORE is supported but not extensively tested      |
|     yet).                                                                   |
|                                                                             |
 -----------------------------------------------------------------------------

 POTCAR:    PAW_PBE Na_pv 19Sep2006               
   SHA256 =  6a2f546d9e11350984debacf3dc457d8cffc0868e817d445faca461816a32b94 Na_pv/POTCAR          
   COPYR  = (c) Copyright 19Sep2006 Georg Kresse                                                    
   COPYR  = This file is part of the software VASP. Any use, copying, and all other rights are regul
   COPYR  = If you do not have a valid VASP license, you may not use, copy or distribute this file. 
   VRHFIN =Na: p6s1                                                                                 
   LEXCH  = PE                                                                                      
   EATOM  =   766.0439 eV,   56.3026 Ry                                                             
                                                                                                    
   TITEL  = PAW_PBE Na_pv 19Sep2006                                                                 
   LULTRA =        F    use ultrasoft PP ?                                                          
   IUNSCR =        1    unscreen: 0-lin 1-nonlin 2-no                                               
   RPACOR =    1.800    partial core radius                                                         
   POMASS =   22.990; ZVAL   =    7.000    mass and valenz                                          
   RCORE  =    2.200    outmost cutoff radius                                                       
   RWIGS  =    2.200; RWIGS  =    1.164    wigner-seitz radius (au A)                               
   ENMAX  =  259.561; ENMIN  =  194.671 eV                                                          
   ICORE  =        2    local potential                                                             
   LCOR   =        T    correct aug charges                                                         
   LPAW   =        T    paw PP                                                                      
   EAUG   =  368.056                                                                                
   DEXC   =    0.000                                                                                
   RMAX   =    2.245    core radius for proj-oper                                                   
   RAUG   =    1.300    factor for augmentation sphere                                              
   RDEP   =    2.259    radius for radial grids                                                     
   RDEPT  =    1.738    core radius for aug-charge                                                  
                                                                                                    
   Atomic configuration                                                                             
    5 entries                                                                                       
     n  l   j            E        occ.                                                              
     1  0  0.50     -1033.6933   2.0000                                                             
     2  0  0.50       -56.7526   2.0000                                                             
     2  1  1.50       -28.6721   6.0000                                                             
     3  0  0.50        -2.7440   1.0000                                                             
     3  2  1.50        -1.3606   0.0000                                                             
   Description                                                                                      
     l       E           TYP  RCUT    TYP  RCUT                                                     
     1    -28.6720912     23  2.000                                                                 
     1      6.8029130     23  2.000                                                                 
     0     -2.7439560     23  2.200                                                                 
     0     34.0145650     23  2.200                                                                 
     2     -1.3605826     23  2.200                                                                 
  local pseudopotential read in
  partial core-charges read in
  partial kinetic energy density read in
  atomic valenz-charges read in
  non local Contribution for L=           1  read in
    real space projection operators read in
  non local Contribution for L=           1  read in
    real space projection operators read in
  non local Contribution for L=           0  read in
    real space projection operators read in
  non local Contribution for L=           0  read in
    real space projection operators read in
    PAW grid and wavefunctions read in

   number of l-projection  operators is LMAX  =           4
   number of lm-projection operators is LMMAX =           8

 POTCAR:    PAW_PBE Sn_d 06Sep2000                
   SHA256 =  385b269c1887fa92a2bd1b595c4ea1490c7eb92f9f3d87257729a4a813cde741 Sn_d/POTCAR           
   COPYR  = (c) Copyright 06Sep2000 Georg Kresse                                                    
   COPYR  = This file is part of the software VASP. Any use, copying, and all other rights are regul
   COPYR  = If you do not have a valid VASP license, you may not use, copy or distribute this file. 
   VRHFIN =Sn: s2p2                                                                                 
   LEXCH  = PE                                                                                      
   EATOM  =  1893.1092 eV,  139.1396 Ry                                                             
                                                                                                    
   TITEL  = PAW_PBE Sn_d 06Sep2000                                                                  
   LULTRA =        F    use ultrasoft PP ?                                                          
   IUNSCR =        1    unscreen: 0-lin 1-nonlin 2-no                                               
   RPACOR =    2.300    partial core radius                                                         
   POMASS =  118.710; ZVAL   =   14.000    mass and valenz                                          
   RCORE  =    2.500    outmost cutoff radius                                                       
   RWIGS  =    2.960; RWIGS  =    1.566    wigner-seitz radius (au A)                               
   ENMAX  =  241.083; ENMIN  =  180.812 eV                                                          
   ICORE  =        3    local potential                                                             
   LCOR   =        T    correct aug charges                                                         
   LPAW   =        T    paw PP                                                                      
   EAUG   =  439.825                                                                                
   DEXC   =    0.000                                                                                
   RMAX   =    2.560    core radius for proj-oper                                                   
   RAUG   =    1.300    factor for augmentation sphere                                              
   RDEP   =    2.659    radius for radial grids                                                     
   RDEPT  =    2.046    core radius for aug-charge                                                  
                                                                                                    
   Atomic configuration                                                                             
   12 entries                                                                                       
     n  l   j            E        occ.                                                              
     1  0  0.50    -29007.2859   2.0000                                                             
     2  0  0.50     -4378.8056   2.0000                                                             
     2  1  1.50     -3930.4293   6.0000                                                             
     3  0  0.50      -845.0264   2.0000                                                             
     3  1  1.50      -698.5725   6.0000                                                             
     3  2  2.50      -473.2839  10.0000                                                             
     4  0  0.50      -133.9036   2.0000                                                             
     4  1  1.50       -89.6752   6.0000                                                             
     4  2  2.50       -25.8375  10.0000                                                             
     5  0  0.50       -10.5484   2.0000                                                             
     5  1  0.50        -3.6940   2.0000                                                             
     4  3  2.50        -2.7416   0.0000                                                             
   Description                                                                                      
     l       E           TYP  RCUT    TYP  RCUT                                                     
     2    -25.8374624     23  2.500                                                                 
     2     -5.4423304     23  2.500                                                                 
     0    -10.5483727     23  2.500                                                                 
     0     13.6058260     23  2.500                                                                 
     1     -3.6939829     23  2.500                                                                 
     1      1.9821976     23  2.500                                                                 
     3     -1.3605826      7  2.500                                                                 
  local pseudopotential read in
  partial core-charges read in
  partial kinetic energy density read in
  atomic valenz-charges read in
  non local Contribution for L=           2  read in
    real space projection operators read in
  non local Contribution for L=           2  read in
    real space projection operators read in
  non local Contribution for L=           0  read in
    real space projection operators read in
  non local Contribution for L=           0  read in
    real space projection operators read in
  non local Contribution for L=           1  read in
    real space projection operators read in
  non local Contribution for L=           1  read in
    real space projection operators read in
    PAW grid and wavefunctions read in

   number of l-projection  operators is LMAX  =           6
   number of lm-projection operators is LMMAX =          18

 POTCAR:    PAW_PBE S 06Sep2000                   
   SHA256 =  0fc7481fb0695f01bdc6462160264c5c84044ae9ec85a907d398b887a2bc3132 S/POTCAR              
   COPYR  = (c) Copyright 06Sep2000 Georg Kresse                                                    
   COPYR  = This file is part of the software VASP. Any use, copying, and all other rights are regul
   COPYR  = If you do not have a valid VASP license, you may not use, copy or distribute this file. 
   VRHFIN =S : s2p4                                                                                 
   LEXCH  = PE                                                                                      
   EATOM  =   276.8230 eV,   20.3459 Ry                                                             
                                                                                                    
   TITEL  = PAW_PBE S 06Sep2000                                                                     
   LULTRA =        F    use ultrasoft PP ?                                                          
   IUNSCR =        1    unscreen: 0-lin 1-nonlin 2-no                                               
   RPACOR =    1.500    partial core radius                                                         
   POMASS =   32.066; ZVAL   =    6.000    mass and valenz                                          
   RCORE  =    1.900    outmost cutoff radius                                                       
   RWIGS  =    2.200; RWIGS  =    1.164    wigner-seitz radius (au A)                               
   ENMAX  =  258.689; ENMIN  =  194.016 eV                                                          
   ICORE  =        2    local potential                                                             
   LCOR   =        T    correct aug charges                                                         
   LPAW   =        T    paw PP                                                                      
   EAUG   =  335.092                                                                                
   DEXC   =    0.000                                                                                
   RMAX   =    1.942    core radius for proj-oper                                                   
   RAUG   =    1.300    factor for augmentation sphere                                              
   RDEP   =    1.954    radius for radial grids                                                     
   RDEPT  =    1.744    core radius for aug-charge                                                  
                                                                                                    
   Atomic configuration                                                                             
    6 entries                                                                                       
     n  l   j            E        occ.                                                              
     1  0  0.50     -2405.8406   2.0000                                                             
     2  0  0.50      -211.7007   2.0000                                                             
     2  1  1.50      -156.4958   6.0000                                                             
     3  0  0.50       -17.2562   2.0000                                                             
     3  1  0.50        -7.0085   4.0000                                                             
     3  2  1.50        -6.8029   0.0000                                                             
   Description                                                                                      
     l       E           TYP  RCUT    TYP  RCUT                                                     
     0    -17.2561641     23  1.900                                                                 
     0    -15.8743224     23  1.900                                                                 
     1     -7.0085400     23  1.900                                                                 
     1     -2.7779785     23  1.900                                                                 
     2     -6.8029130     23  1.900                                                                 
  local pseudopotential read in
  partial core-charges read in
  partial kinetic energy density read in
  atomic valenz-charges read in
  non local Contribution for L=           0  read in
    real space projection operators read in
  non local Contribution for L=           0  read in
    real space projection operators read in
  non local Contribution for L=           1  read in
    real space projection operators read in
  non local Contribution for L=           1  read in
    real space projection operators read in
    PAW grid and wavefunctions read in

   number of l-projection  operators is LMAX  =           4
   number of lm-projection operators is LMMAX =           8

 -----------------------------------------------------------------------------
|                                                                             |
|               ----> ADVICE to this user running VASP <----                  |
|                                                                             |
|     You have a (more or less) 'small supercell' and for smaller cells       |
|     it is recommended to use the reciprocal-space projection scheme!        |
|     The real-space optimization is not efficient for small cells and it     |
|     is also less accurate ...                                               |
|     Therefore, set LREAL=.FALSE. in the INCAR file.                         |
|                                                                             |
 -----------------------------------------------------------------------------

 Optimization of the real space projectors (new method)

 maximal supplied QI-value         = 17.01
 optimisation between [QCUT,QGAM] = [ 10.20, 20.41] = [ 29.16,116.64] Ry 
 Optimized for a Real-space Cutoff    1.30 Angstroem

   l    n(q)    QCUT    max X(q) W(low)/X(q) W(high)/X(q)  e(spline) 
   1      7    10.205     4.940    0.23E-03    0.84E-03    0.11E-06
   1      7    10.205     6.253    0.40E-03    0.13E-02    0.18E-06
   0      8    10.205    37.438    0.23E-03    0.37E-03    0.42E-07
   0      8    10.205     9.606    0.16E-03    0.26E-03    0.31E-07
 Optimization of the real space projectors (new method)

 maximal supplied QI-value         = 15.12
 optimisation between [QCUT,QGAM] = [ 10.13, 20.41] = [ 28.73,116.64] Ry 
 Optimized for a Real-space Cutoff    1.38 Angstroem

   l    n(q)    QCUT    max X(q) W(low)/X(q) W(high)/X(q)  e(spline) 
   2      7    10.129     5.880    0.15E-03    0.14E-04    0.57E-07
   2      7    10.129     7.804    0.33E-03    0.17E-03    0.10E-06
   0      8    10.129    20.557    0.11E-03    0.15E-03    0.82E-07
   0      8    10.129     9.400    0.14E-03    0.19E-03    0.10E-06
   1      8    10.129    94.178    0.28E-03    0.18E-03    0.13E-06
   1      8    10.129    56.401    0.27E-03    0.17E-03    0.13E-06
 Optimization of the real space projectors (new method)

 maximal supplied QI-value         = 19.84
 optimisation between [QCUT,QGAM] = [ 10.12, 20.44] = [ 28.68,116.96] Ry 
 Optimized for a Real-space Cutoff    1.23 Angstroem

   l    n(q)    QCUT    max X(q) W(low)/X(q) W(high)/X(q)  e(spline) 
   0      7    10.119   187.594    0.62E-04    0.28E-03    0.52E-07
   0      7    10.119   164.243    0.61E-04    0.28E-03    0.52E-07
   1      7    10.119    67.533    0.45E-03    0.63E-03    0.13E-06
   1      7    10.119    50.729    0.44E-03    0.62E-03    0.12E-06
  PAW_PBE Na_pv 19Sep2006               :
 energy of atom  1       EATOM= -766.0439
 kinetic energy error for atom=    0.0103 (will be added to EATOM!!)
  PAW_PBE Sn_d 06Sep2000                :
 energy of atom  2       EATOM=-1893.1092
 kinetic energy error for atom=    0.0047 (will be added to EATOM!!)
  PAW_PBE S 06Sep2000                   :
 energy of atom  3       EATOM= -276.8230
 kinetic energy error for atom=    0.0046 (will be added to EATOM!!)


 POSCAR: Na1 Sn1 S1
  positions in direct lattice
  velocities in cartesian coordinates
 exchange correlation table for  LEXCH =        8
   RHO(1)=    0.500       N(1)  =     2000
   RHO(2)=  100.500       N(2)  =     4000



--------------------------------------------------------------------------------------------------------


 ion  position               nearest neighbor table
   1  0.000  0.000  0.000-   2 2.94   2 2.94   2 2.94
   2  0.667  0.333  0.000-   3 2.94   1 2.94   3 2.94   1 2.94   1 2.94   3 2.94
   3  0.333  0.667  0.000-   2 2.94   2 2.94   2 2.94

  LATTYP: Found a hexagonal cell.
 ALAT       =     5.0868558200
 C/A-ratio  =     0.7247165115
  
  Lattice vectors:
  
 A1 = (   5.0868558200,   0.0000000000,   0.0000000000)
 A2 = (  -2.5434279100,   4.4053463655,   0.0000000000)
 A3 = (   0.0000000000,   0.0000000000,   3.6865284043)


Analysis of symmetry for initial positions (statically):
=====================================================================
 Subroutine PRICEL returns:
 Original cell was already a primitive cell.
 

 Routine SETGRP: Setting up the symmetry group for a 
 hexagonal supercell.


 Subroutine GETGRP returns: Found 12 space group operations
 (whereof 12 operations were pure point group operations)
 out of a pool of 24 trial point group operations.


The static configuration has the point symmetry D_3h.


Analysis of symmetry for dynamics (positions and initial velocities):
=====================================================================
 Subroutine PRICEL returns:
 Original cell was already a primitive cell.
 

 Routine SETGRP: Setting up the symmetry group for a 
 hexagonal supercell.


 Subroutine GETGRP returns: Found 12 space group operations
 (whereof 12 operations were pure point group operations)
 out of a pool of 24 trial point group operations.


The dynamic configuration has the point symmetry D_3h.


 Subroutine INISYM returns: Found 12 space group operations
 (whereof 12 operations are pure point group operations),
 and found     1 'primitive' translations


----------------------------------------------------------------------------------------

                                     Primitive cell                                     

  volume of cell :      82.6127

  direct lattice vectors                    reciprocal lattice vectors
     5.086855820  0.000000000  0.000000000     0.196585088  0.113498454 -0.000000000
    -2.543427910  4.405346366  0.000000000     0.000000000  0.226996907  0.000000000
     0.000000000  0.000000000  3.686528404     0.000000000 -0.000000000  0.271257913

  length of vectors
     5.086855820  5.086855820  3.686528404     0.226996907  0.226996907  0.271257913

  position of ions in fractional coordinates (direct lattice)
     0.000000000  0.000000000  0.000000000
     0.666666792  0.333333141  0.000000000
     0.333333141  0.666666282  0.000000000

  ion indices of the primitive-cell ions
   primitive index   ion index
                 1           1
                 2           2
                 3           3

----------------------------------------------------------------------------------------



 KPOINTS: pymatgen with grid density = 600 / numbe

Automatic generation of k-mesh.
 Grid dimensions read from file:
 generate k-points for:    5    5    7

 Generating k-lattice:

  Cartesian coordinates                     Fractional coordinates (reciprocal lattice)
     0.039317018  0.022699691 -0.000000000     0.200000000  0.000000000  0.000000000
     0.000000000  0.045399381  0.000000000     0.000000000  0.200000000  0.000000000
     0.000000000 -0.000000000  0.038751130     0.000000000  0.000000000  0.142857143

  Length of vectors
     0.045399381  0.045399381  0.038751130

  Shift w.r.t. Gamma in fractional coordinates (k-lattice)
     0.000000000  0.000000000  0.000000000

 
 Subroutine IBZKPT returns following result:
 ===========================================
 
 Found     20 irreducible k-points:
 
 Following reciprocal coordinates:
            Coordinates               Weight
  0.000000  0.000000  0.000000      1.000000
  0.200000  0.000000  0.000000      6.000000
  0.400000  0.000000  0.000000      6.000000
  0.200000  0.200000  0.000000      6.000000
  0.400000  0.200000  0.000000      6.000000
  0.000000  0.000000  0.142857      2.000000
  0.200000  0.000000  0.142857     12.000000
  0.400000  0.000000  0.142857     12.000000
  0.200000  0.200000  0.142857     12.000000
  0.400000  0.200000  0.142857     12.000000
  0.000000  0.000000  0.285714      2.000000
  0.200000  0.000000  0.285714     12.000000
  0.400000  0.000000  0.285714     12.000000
  0.200000  0.200000  0.285714     12.000000
  0.400000  0.200000  0.285714     12.000000
  0.000000  0.000000  0.428571      2.000000
  0.200000  0.000000  0.428571     12.000000
  0.400000  0.000000  0.428571     12.000000
  0.200000  0.200000  0.428571     12.000000
  0.400000  0.200000  0.428571     12.000000
 
 Following cartesian coordinates:
            Coordinates               Weight
  0.000000  0.000000  0.000000      1.000000
  0.039317  0.022700  0.000000      6.000000
  0.078634  0.045399  0.000000      6.000000
  0.039317  0.068099  0.000000      6.000000
  0.078634  0.090799  0.000000      6.000000
  0.000000  0.000000  0.038751      2.000000
  0.039317  0.022700  0.038751     12.000000
  0.078634  0.045399  0.038751     12.000000
  0.039317  0.068099  0.038751     12.000000
  0.078634  0.090799  0.038751     12.000000
  0.000000  0.000000  0.077502      2.000000
  0.039317  0.022700  0.077502     12.000000
  0.078634  0.045399  0.077502     12.000000
  0.039317  0.068099  0.077502     12.000000
  0.078634  0.090799  0.077502     12.000000
  0.000000  0.000000  0.116253      2.000000
  0.039317  0.022700  0.116253     12.000000
  0.078634  0.045399  0.116253     12.000000
  0.039317  0.068099  0.116253     12.000000
  0.078634  0.090799  0.116253     12.000000
 
 
 Subroutine IBZKPT_HF returns following result:
 ==============================================
 
 Found    175 k-points in 1st BZ
 the following    175 k-points will be used (e.g. in the exchange kernel)
 Following reciprocal coordinates:   # in IRBZ
  0.000000  0.000000  0.000000    0.00571429   1 t-inv F
  0.200000  0.000000  0.000000    0.00571429   2 t-inv F
  0.400000  0.000000  0.000000    0.00571429   3 t-inv F
  0.200000  0.200000  0.000000    0.00571429   4 t-inv F
  0.400000  0.200000  0.000000    0.00571429   5 t-inv F
  0.000000  0.000000  0.142857    0.00571429   6 t-inv F
  0.200000  0.000000  0.142857    0.00571429   7 t-inv F
  0.400000  0.000000  0.142857    0.00571429   8 t-inv F
  0.200000  0.200000  0.142857    0.00571429   9 t-inv F
  0.400000  0.200000  0.142857    0.00571429  10 t-inv F
  0.000000  0.000000  0.285714    0.00571429  11 t-inv F
  0.200000  0.000000  0.285714    0.00571429  12 t-inv F
  0.400000  0.000000  0.285714    0.00571429  13 t-inv F
  0.200000  0.200000  0.285714    0.00571429  14 t-inv F
  0.400000  0.200000  0.285714    0.00571429  15 t-inv F
  0.000000  0.000000  0.428571    0.00571429  16 t-inv F
  0.200000  0.000000  0.428571    0.00571429  17 t-inv F
  0.400000  0.000000  0.428571    0.00571429  18 t-inv F
  0.200000  0.200000  0.428571    0.00571429  19 t-inv F
  0.400000  0.200000  0.428571    0.00571429  20 t-inv F
  0.000000 -0.200000 -0.000000    0.00571429   2 t-inv F
 -0.200000  0.200000  0.000000    0.00571429   2 t-inv F
  0.000000 -0.400000 -0.000000    0.00571429   3 t-inv F
 -0.400000  0.400000  0.000000    0.00571429   3 t-inv F
  0.200000 -0.400000 -0.000000    0.00571429   4 t-inv F
 -0.400000  0.200000  0.000000    0.00571429   4 t-inv F
 -0.200000  0.400000  0.000000    0.00571429   4 t-inv F
 -0.200000 -0.200000 -0.000000    0.00571429   4 t-inv F
  0.400000 -0.200000  0.000000    0.00571429   4 t-inv F
  0.200000 -0.600000 -0.000000    0.00571429   5 t-inv F
 -0.600000  0.400000  0.000000    0.00571429   5 t-inv F
 -0.400000  0.600000  0.000000    0.00571429   5 t-inv F
 -0.200000 -0.400000 -0.000000    0.00571429   5 t-inv F
  0.600000 -0.200000  0.000000    0.00571429   5 t-inv F
  0.000000 -0.000000 -0.142857    0.00571429   6 t-inv F
  0.000000 -0.200000 -0.142857    0.00571429   7 t-inv F
 -0.200000  0.200000  0.142857    0.00571429   7 t-inv F
  0.200000  0.000000 -0.142857    0.00571429   7 t-inv F
  0.000000 -0.200000  0.142857    0.00571429   7 t-inv F
 -0.200000  0.200000 -0.142857    0.00571429   7 t-inv F
  0.000000 -0.400000 -0.142857    0.00571429   8 t-inv F
 -0.400000  0.400000  0.142857    0.00571429   8 t-inv F
  0.400000  0.000000 -0.142857    0.00571429   8 t-inv F
  0.000000 -0.400000  0.142857    0.00571429   8 t-inv F
 -0.400000  0.400000 -0.142857    0.00571429   8 t-inv F
  0.200000 -0.400000 -0.142857    0.00571429   9 t-inv F
 -0.400000  0.200000  0.142857    0.00571429   9 t-inv F
  0.200000  0.200000 -0.142857    0.00571429   9 t-inv F
  0.200000 -0.400000  0.142857    0.00571429   9 t-inv F
 -0.400000  0.200000 -0.142857    0.00571429   9 t-inv F
 -0.200000  0.400000  0.142857    0.00571429   9 t-inv F
 -0.200000 -0.200000 -0.142857    0.00571429   9 t-inv F
  0.400000 -0.200000  0.142857    0.00571429   9 t-inv F
 -0.200000  0.400000 -0.142857    0.00571429   9 t-inv F
 -0.200000 -0.200000  0.142857    0.00571429   9 t-inv F
  0.400000 -0.200000 -0.142857    0.00571429   9 t-inv F
  0.200000 -0.600000 -0.142857    0.00571429  10 t-inv F
 -0.600000  0.400000  0.142857    0.00571429  10 t-inv F
  0.400000  0.200000 -0.142857    0.00571429  10 t-inv F
  0.200000 -0.600000  0.142857    0.00571429  10 t-inv F
 -0.600000  0.400000 -0.142857    0.00571429  10 t-inv F
 -0.400000  0.600000  0.142857    0.00571429  10 t-inv F
 -0.200000 -0.400000 -0.142857    0.00571429  10 t-inv F
  0.600000 -0.200000  0.142857    0.00571429  10 t-inv F
 -0.400000  0.600000 -0.142857    0.00571429  10 t-inv F
 -0.200000 -0.400000  0.142857    0.00571429  10 t-inv F
  0.600000 -0.200000 -0.142857    0.00571429  10 t-inv F
  0.000000 -0.000000 -0.285714    0.00571429  11 t-inv F
  0.000000 -0.200000 -0.285714    0.00571429  12 t-inv F
 -0.200000  0.200000  0.285714    0.00571429  12 t-inv F
  0.200000  0.000000 -0.285714    0.00571429  12 t-inv F
  0.000000 -0.200000  0.285714    0.00571429  12 t-inv F
 -0.200000  0.200000 -0.285714    0.00571429  12 t-inv F
  0.000000 -0.400000 -0.285714    0.00571429  13 t-inv F
 -0.400000  0.400000  0.285714    0.00571429  13 t-inv F
  0.400000  0.000000 -0.285714    0.00571429  13 t-inv F
  0.000000 -0.400000  0.285714    0.00571429  13 t-inv F
 -0.400000  0.400000 -0.285714    0.00571429  13 t-inv F
  0.200000 -0.400000 -0.285714    0.00571429  14 t-inv F
 -0.400000  0.200000  0.285714    0.00571429  14 t-inv F
  0.200000  0.200000 -0.285714    0.00571429  14 t-inv F
  0.200000 -0.400000  0.285714    0.00571429  14 t-inv F
 -0.400000  0.200000 -0.285714    0.00571429  14 t-inv F
 -0.200000  0.400000  0.285714    0.00571429  14 t-inv F
 -0.200000 -0.200000 -0.285714    0.00571429  14 t-inv F
  0.400000 -0.200000  0.285714    0.00571429  14 t-inv F
 -0.200000  0.400000 -0.285714    0.00571429  14 t-inv F
 -0.200000 -0.200000  0.285714    0.00571429  14 t-inv F
  0.400000 -0.200000 -0.285714    0.00571429  14 t-inv F
  0.200000 -0.600000 -0.285714    0.00571429  15 t-inv F
 -0.600000  0.400000  0.285714    0.00571429  15 t-inv F
  0.400000  0.200000 -0.285714    0.00571429  15 t-inv F
  0.200000 -0.600000  0.285714    0.00571429  15 t-inv F
 -0.600000  0.400000 -0.285714    0.00571429  15 t-inv F
 -0.400000  0.600000  0.285714    0.00571429  15 t-inv F
 -0.200000 -0.400000 -0.285714    0.00571429  15 t-inv F
  0.600000 -0.200000  0.285714    0.00571429  15 t-inv F
 -0.400000  0.600000 -0.285714    0.00571429  15 t-inv F
 -0.200000 -0.400000  0.285714    0.00571429  15 t-inv F
  0.600000 -0.200000 -0.285714    0.00571429  15 t-inv F
  0.000000 -0.000000 -0.428571    0.00571429  16 t-inv F
  0.000000 -0.200000 -0.428571    0.00571429  17 t-inv F
 -0.200000  0.200000  0.428571    0.00571429  17 t-inv F
  0.200000  0.000000 -0.428571    0.00571429  17 t-inv F
  0.000000 -0.200000  0.428571    0.00571429  17 t-inv F
 -0.200000  0.200000 -0.428571    0.00571429  17 t-inv F
  0.000000 -0.400000 -0.428571    0.00571429  18 t-inv F
 -0.400000  0.400000  0.428571    0.00571429  18 t-inv F
  0.400000  0.000000 -0.428571    0.00571429  18 t-inv F
  0.000000 -0.400000  0.428571    0.00571429  18 t-inv F
 -0.400000  0.400000 -0.428571    0.00571429  18 t-inv F
  0.200000 -0.400000 -0.428571    0.00571429  19 t-inv F
 -0.400000  0.200000  0.428571    0.00571429  19 t-inv F
  0.200000  0.200000 -0.428571    0.00571429  19 t-inv F
  0.200000 -0.400000  0.428571    0.00571429  19 t-inv F
 -0.400000  0.200000 -0.428571    0.00571429  19 t-inv F
 -0.200000  0.400000  0.428571    0.00571429  19 t-inv F
 -0.200000 -0.200000 -0.428571    0.00571429  19 t-inv F
  0.400000 -0.200000  0.428571    0.00571429  19 t-inv F
 -0.200000  0.400000 -0.428571    0.00571429  19 t-inv F
 -0.200000 -0.200000  0.428571    0.00571429  19 t-inv F
  0.400000 -0.200000 -0.428571    0.00571429  19 t-inv F
  0.200000 -0.600000 -0.428571    0.00571429  20 t-inv F
 -0.600000  0.400000  0.428571    0.00571429  20 t-inv F
  0.400000  0.200000 -0.428571    0.00571429  20 t-inv F
  0.200000 -0.600000  0.428571    0.00571429  20 t-inv F
 -0.600000  0.400000 -0.428571    0.00571429  20 t-inv F
 -0.400000  0.600000  0.428571    0.00571429  20 t-inv F
 -0.200000 -0.400000 -0.428571    0.00571429  20 t-inv F
  0.600000 -0.200000  0.428571    0.00571429  20 t-inv F
 -0.400000  0.600000 -0.428571    0.00571429  20 t-inv F
 -0.200000 -0.400000  0.428571    0.00571429  20 t-inv F
  0.600000 -0.200000 -0.428571    0.00571429  20 t-inv F
 -0.200000 -0.000000 -0.000000    0.00571429   2 t-inv T
 -0.000000  0.200000  0.000000    0.00571429   2 t-inv T
  0.200000 -0.200000 -0.000000    0.00571429   2 t-inv T
 -0.400000 -0.000000 -0.000000    0.00571429   3 t-inv T
 -0.000000  0.400000  0.000000    0.00571429   3 t-inv T
  0.400000 -0.400000 -0.000000    0.00571429   3 t-inv T
 -0.200000 -0.000000 -0.142857    0.00571429   7 t-inv T
 -0.000000  0.200000  0.142857    0.00571429   7 t-inv T
  0.200000 -0.200000 -0.142857    0.00571429   7 t-inv T
 -0.200000 -0.000000  0.142857    0.00571429   7 t-inv T
 -0.000000  0.200000 -0.142857    0.00571429   7 t-inv T
  0.200000 -0.200000  0.142857    0.00571429   7 t-inv T
 -0.400000 -0.000000 -0.142857    0.00571429   8 t-inv T
 -0.000000  0.400000  0.142857    0.00571429   8 t-inv T
  0.400000 -0.400000 -0.142857    0.00571429   8 t-inv T
 -0.400000 -0.000000  0.142857    0.00571429   8 t-inv T
 -0.000000  0.400000 -0.142857    0.00571429   8 t-inv T
  0.400000 -0.400000  0.142857    0.00571429   8 t-inv T
 -0.200000 -0.000000 -0.285714    0.00571429  12 t-inv T
 -0.000000  0.200000  0.285714    0.00571429  12 t-inv T
  0.200000 -0.200000 -0.285714    0.00571429  12 t-inv T
 -0.200000 -0.000000  0.285714    0.00571429  12 t-inv T
 -0.000000  0.200000 -0.285714    0.00571429  12 t-inv T
  0.200000 -0.200000  0.285714    0.00571429  12 t-inv T
 -0.400000 -0.000000 -0.285714    0.00571429  13 t-inv T
 -0.000000  0.400000  0.285714    0.00571429  13 t-inv T
  0.400000 -0.400000 -0.285714    0.00571429  13 t-inv T
 -0.400000 -0.000000  0.285714    0.00571429  13 t-inv T
 -0.000000  0.400000 -0.285714    0.00571429  13 t-inv T
  0.400000 -0.400000  0.285714    0.00571429  13 t-inv T
 -0.200000 -0.000000 -0.428571    0.00571429  17 t-inv T
 -0.000000  0.200000  0.428571    0.00571429  17 t-inv T
  0.200000 -0.200000 -0.428571    0.00571429  17 t-inv T
 -0.200000 -0.000000  0.428571    0.00571429  17 t-inv T
 -0.000000  0.200000 -0.428571    0.00571429  17 t-inv T
  0.200000 -0.200000  0.428571    0.00571429  17 t-inv T
 -0.400000 -0.000000 -0.428571    0.00571429  18 t-inv T
 -0.000000  0.400000  0.428571    0.00571429  18 t-inv T
  0.400000 -0.400000 -0.428571    0.00571429  18 t-inv T
 -0.400000 -0.000000  0.428571    0.00571429  18 t-inv T
 -0.000000  0.400000 -0.428571    0.00571429  18 t-inv T
  0.400000 -0.400000  0.428571    0.00571429  18 t-inv T


--------------------------------------------------------------------------------------------------------




 Dimension of arrays:
   k-points           NKPTS =     20   k-points in BZ     NKDIM =     20   number of bands    NBANDS=     24
   number of dos      NEDOS =    301   number of ions     NIONS =      3
   non local maximal  LDIM  =      6   non local SUM 2l+1 LMDIM =     18
   total plane-waves  NPLWV =  14112
   max r-space proj   IRMAX =   1932   max aug-charges    IRDMAX=   7827
   dimension x,y,z NGX =    28 NGY =   28 NGZ =   18
   dimension x,y,z NGXF=    56 NGYF=   56 NGZF=   36
   support grid    NGXF=    56 NGYF=   56 NGZF=   36
   ions per type =               1   1   1
   NGX,Y,Z   is equivalent  to a cutoff of   9.15,  9.15,  8.12 a.u.
   NGXF,Y,Z  is equivalent  to a cutoff of  18.30, 18.30, 16.23 a.u.

 SYSTEM =  unknown system                          
 POSCAR =  Na1 Sn1 S1                              

 Startparameter for this run:
   NWRITE =      2    write-flag & timer
   PREC   = normal    normal or accurate (medium, high low for compatibility)
   ISTART =      0    job   : 0-new  1-cont  2-samecut
   ICHARG =      2    charge: 1-file 2-atom 10-const
   ISPIN  =      1    spin polarized calculation?
   LNONCOLLINEAR =      F non collinear calculations
   LSORBIT =      F    spin-orbit coupling
   INIWAV =      1    electr: 0-lowe 1-rand  2-diag
   LASPH  =      F    aspherical Exc in radial PAW
 Electronic Relaxation 1
   ENCUT  =  400.0 eV  29.40 Ry    5.42 a.u.   8.30  8.30  6.01*2*pi/ulx,y,z
   ENINI  =  400.0     initial cutoff
   ENAUG  =  439.8 eV  augmentation charge cutoff
   NELM   =     60;   NELMIN=  2; NELMDL=  0     # of ELM steps 
   EDIFF  = 0.1E-05   stopping-criterion for ELM
   LREAL  =      T    real-space projection
   NLSPLINE    = F    spline interpolate recip. space projectors
   LCOMPAT=      F    compatible to vasp.4.4
   GGA_COMPAT  = T    GGA compatible to vasp.4.4-vasp.4.6
   LMAXPAW     = -100 max onsite density
   LMAXMIX     =    2 max onsite mixed and CHGCAR
   VOSKOWN=      0    Vosko Wilk Nusair interpolation
   ROPT   =   -0.00050  -0.00050  -0.00050
 Ionic relaxation
   EDIFFG = 0.1E-04   stopping-criterion for IOM
   NSW    =     73    number of steps for IOM
   NBLOCK =      1;   KBLOCK =     73    inner block; outer block 
   IBRION =      6    ionic relax: 0-MD 1-quasi-New 2-CG
   NFREE  =      4    steps in history (QN), initial steepest desc. (CG)
   ISIF   =      3    stress and relaxation
   IWAVPR =     11    prediction:  0-non 1-charg 2-wave 3-comb
   ISYM   =      2    0-nonsym 1-usesym 2-fastsym
   LCORR  =      T    Harris-Foulkes like correction to forces

   POTIM  = 0.0150    time-step for ionic-motion
   TEIN   =    0.0    initial temperature
   TEBEG  =    0.0;   TEEND  =   0.0 temperature during run
   SMASS  =  -3.00    Nose mass-parameter (am)
   estimated Nose-frequenzy (Omega)   =  0.10E-29 period in steps = 0.42E+48 mass=  -0.591E-27a.u.
   SCALEE = 1.0000    scale energy and forces
   NPACO  =    256;   APACO  = 10.0  distance and # of slots for P.C.
   PSTRESS=    0.0 pullay stress

  Mass of Ions in am
   POMASS =  22.99118.71 32.07
  Ionic Valenz
   ZVAL   =   7.00 14.00  6.00
  Atomic Wigner-Seitz radii
   RWIGS  =  -1.00 -1.00 -1.00
  virtual crystal weights 
   VCA    =   1.00  1.00  1.00
   NELECT =      27.0000    total number of electrons
   NUPDOWN=      -1.0000    fix difference up-down

 DOS related values:
   EMIN   =  10.00;   EMAX   =-10.00  energy-range for DOS
   EFERMI =   0.00
   ISMEAR =     0;   SIGMA  =   0.05  broadening in eV -4-tet -1-fermi 0-gaus

 Electronic relaxation 2 (details)
   IALGO  =     38    algorithm
   LDIAG  =      T    sub-space diagonalisation (order eigenvalues)
   LSUBROT=      F    optimize rotation matrix (better conditioning)
   TURBO    =      0    0=normal 1=particle mesh
   IRESTART =      0    0=no restart 2=restart with 2 vectors
   NREBOOT  =      0    no. of reboots
   NMIN     =      0    reboot dimension
   EREF     =   0.00    reference energy to select bands
   IMIX   =      4    mixing-type and parameters
     AMIX     =   0.40;   BMIX     =  1.00
     AMIX_MAG =   1.60;   BMIX_MAG =  1.00
     AMIN     =   0.10
     WC   =   100.;   INIMIX=   1;  MIXPRE=   1;  MAXMIX= -45

 Intra band minimization:
   WEIMIN = 0.0010     energy-eigenvalue tresh-hold
   EBREAK =  0.10E-07  absolut break condition
   DEPER  =   0.30     relativ break condition  

   TIME   =   0.40     timestep for ELM

  volume/ion in A,a.u.               =      27.54       185.83
  Fermi-wavevector in a.u.,A,eV,Ry     =   1.127666  2.130979 17.301577  1.271630
  Thomas-Fermi vector in A             =   2.264353

 Write flags
   LWAVE        =      F    write WAVECAR
   LDOWNSAMPLE  =      F    k-point downsampling of WAVECAR
   LCHARG       =      F    write CHGCAR
   LVTOT        =      F    write LOCPOT, total local potential
   LVHAR        =      F    write LOCPOT, Hartree potential only
   LELF         =      F    write electronic localiz. function (ELF)
   LORBIT       =      0    0 simple, 1 ext, 2 COOP (PROOUT), +10 PAW based schemes


 Dipole corrections
   LMONO  =      F    monopole corrections only (constant potential shift)
   LDIPOL =      F    correct potential (dipole corrections)
   IDIPOL =      0    1-x, 2-y, 3-z, 4-all directions 
   EPSILON=  1.0000000 bulk dielectric constant

 Exchange correlation treatment:
   GGA     =    --    GGA type
   LEXCH   =     8    internal setting for exchange type
   LIBXC   =     F    Libxc                    
   VOSKOWN =     0    Vosko Wilk Nusair interpolation
   LHFCALC =     F    Hartree Fock is set to
   LHFONE  =     F    Hartree Fock one center treatment
   AEXX    =    0.0000 exact exchange contribution

 Linear response parameters
   LEPSILON=     F    determine dielectric tensor
   LRPA    =     F    only Hartree local field effects (RPA)
   LNABLA  =     F    use nabla operator in PAW spheres
   LVEL    =     F    velocity operator in full k-point grid
   CSHIFT  =0.1000    complex shift for real part using Kramers Kronig
   OMEGAMAX=  -1.0    maximum frequency
   DEG_THRESHOLD= 0.2000000E-02 threshold for treating states as degnerate
   RTIME   =   -0.100 relaxation time in fs
  (WPLASMAI=    0.000 imaginary part of plasma frequency in eV, 0.658/RTIME)
   DFIELD  = 0.0000000 0.0000000 0.0000000 field for delta impulse in time

  Optional k-point grid parameters
   LKPOINTS_OPT  =     F    use optional k-point grid
   KPOINTS_OPT_MODE=     1    mode for optional k-point grid

 Orbital magnetization related:
   ORBITALMAG=     F  switch on orbital magnetization
   LCHIMAG   =     F  perturbation theory with respect to B field
   DQ        =  0.001000  dq finite difference perturbation B field
   LLRAUG    =     F  two centre corrections for induced B field



--------------------------------------------------------------------------------------------------------


 finite differences with symmetry
 charge density and potential will be updated during run
 non-spin polarized calculation
 Variant of blocked Davidson
 Davidson routine will perform the subspace rotation
 perform sub-space diagonalisation
    after iterative eigenvector-optimisation
 modified Broyden-mixing scheme, WC =      100.0
 initial mixing is a Kerker type mixing with AMIX =  0.4000 and BMIX =      1.0000
 Hartree-type preconditioning will be used
 using additional bands           10
 real space projection scheme for non local part
 use partial core corrections
 calculate Harris-corrections to forces   (improved forces if not selfconsistent)
 use gradient corrections 
 use of overlap-Matrix (Vanderbilt PP)
 Gauss-broadening in eV      SIGMA  =   0.05


--------------------------------------------------------------------------------------------------------


  energy-cutoff  :      400.00
  volume of cell :       82.61
      direct lattice vectors                 reciprocal lattice vectors
     5.086855820  0.000000000  0.000000000     0.196585088  0.113498454 -0.000000000
    -2.543427910  4.405346366  0.000000000     0.000000000  0.226996907  0.000000000
     0.000000000  0.000000000  3.686528404     0.000000000 -0.000000000  0.271257913

  length of vectors
     5.086855820  5.086855820  3.686528404     0.226996907  0.226996907  0.271257913



 k-points in units of 2pi/SCALE and weight: pymatgen with grid density = 600 / numbe
   0.00000000  0.00000000  0.00000000       0.006
   0.03931702  0.02269969  0.00000000       0.034
   0.07863404  0.04539938  0.00000000       0.034
   0.03931702  0.06809907  0.00000000       0.034
   0.07863404  0.09079876  0.00000000       0.034
   0.00000000  0.00000000  0.03875113       0.011
   0.03931702  0.02269969  0.03875113       0.069
   0.07863404  0.04539938  0.03875113       0.069
   0.03931702  0.06809907  0.03875113       0.069
   0.07863404  0.09079876  0.03875113       0.069
   0.00000000  0.00000000  0.07750226       0.011
   0.03931702  0.02269969  0.07750226       0.069
   0.07863404  0.04539938  0.07750226       0.069
   0.03931702  0.06809907  0.07750226       0.069
   0.07863404  0.09079876  0.07750226       0.069
   0.00000000  0.00000000  0.11625339       0.011
   0.03931702  0.02269969  0.11625339       0.069
   0.07863404  0.04539938  0.11625339       0.069
   0.03931702  0.06809907  0.11625339       0.069
   0.07863404  0.09079876  0.11625339       0.069

 k-points in reciprocal lattice and weights: pymatgen with grid density = 600 / numbe
   0.00000000  0.00000000  0.00000000       0.006
   0.20000000  0.00000000  0.00000000       0.034
   0.40000000  0.00000000  0.00000000       0.034
   0.20000000  0.20000000  0.00000000       0.034
   0.40000000  0.20000000  0.00000000       0.034
   0.00000000  0.00000000  0.14285714       0.011
   0.20000000  0.00000000  0.14285714       0.069
   0.40000000  0.00000000  0.14285714       0.069
   0.20000000  0.20000000  0.14285714       0.069
   0.40000000  0.20000000  0.14285714       0.069
   0.00000000  0.00000000  0.28571429       0.011
   0.20000000  0.00000000  0.28571429       0.069
   0.40000000  0.00000000  0.28571429       0.069
   0.20000000  0.20000000  0.28571429       0.069
   0.40000000  0.20000000  0.28571429       0.069
   0.00000000  0.00000000  0.42857143       0.011
   0.20000000  0.00000000  0.42857143       0.069
   0.40000000  0.00000000  0.42857143       0.069
   0.20000000  0.20000000  0.42857143       0.069
   0.40000000  0.20000000  0.42857143       0.069

 position of ions in fractional coordinates (direct lattice) 
   0.00000000  0.00000000  0.00000000
   0.66666679  0.33333314  0.00000000
   0.33333314  0.66666628  0.00000000

 position of ions in cartesian coordinates  (Angst):
   0.00000000  0.00000000  0.00000000
   2.54342903  1.46844794  0.00000000
  -0.00000000  2.93689588  0.00000000



--------------------------------------------------------------------------------------------------------


 k-point   1 :   0.0000 0.0000 0.0000  plane waves:    1495
 k-point   2 :   0.2000 0.0000 0.0000  plane waves:    1490
 k-point   3 :   0.4000 0.0000 0.0000  plane waves:    1488
 k-point   4 :   0.2000 0.2000 0.0000  plane waves:    1476
 k-point   5 :   0.4000 0.2000 0.0000  plane waves:    1496
 k-point   6 :   0.0000 0.0000 0.1429  plane waves:    1506
 k-point   7 :   0.2000 0.0000 0.1429  plane waves:    1509
 k-point   8 :   0.4000 0.0000 0.1429  plane waves:    1491
 k-point   9 :   0.2000 0.2000 0.1429  plane waves:    1495
 k-point  10 :   0.4000 0.2000 0.1429  plane waves:    1502
 k-point  11 :   0.0000 0.0000 0.2857  plane waves:    1506
 k-point  12 :   0.2000 0.0000 0.2857  plane waves:    1502
 k-point  13 :   0.4000 0.0000 0.2857  plane waves:    1505
 k-point  14 :   0.2000 0.2000 0.2857  plane waves:    1511
 k-point  15 :   0.4000 0.2000 0.2857  plane waves:    1502
 k-point  16 :   0.0000 0.0000 0.4286  plane waves:    1506
 k-point  17 :   0.2000 0.0000 0.4286  plane waves:    1511
 k-point  18 :   0.4000 0.0000 0.4286  plane waves:    1504
 k-point  19 :   0.2000 0.2000 0.4286  plane waves:    1507
 k-point  20 :   0.4000 0.2000 0.4286  plane waves:    1502

 maximum and minimum number of plane-waves per node :      1511     1476

 maximum number of plane-waves:      1511
 maximum index in each direction: 
   IXMAX=    8   IYMAX=    8   IZMAX=    6
   IXMIN=   -8   IYMIN=   -8   IZMIN=   -6


 serial   3D FFT for wavefunctions
 parallel 3D FFT for charge:
    minimum data exchange during FFTs selected (reduces bandwidth)


 total amount of memory used by VASP MPI-rank0    34194. kBytes
=======================================================================

   base      :      30000. kBytes
   nonlr-proj:        584. kBytes
   fftplans  :        558. kBytes
   grid      :       1517. kBytes
   one-center:         46. kBytes
   wavefun   :       1489. kBytes

     INWAV:  cpu time      0.0000: real time      0.0000
 Broyden mixing: mesh for mixing (old mesh)
   NGX = 17   NGY = 17   NGZ = 13
  (NGX  = 56   NGY  = 56   NGZ  = 36)
  gives a total of   3757 points

 initial charge density was supplied:
 charge density of overlapping atoms calculated
 number of electron      27.0000000 magnetization 
 keeping initial charge density in first step


--------------------------------------------------------------------------------------------------------


 Maximum index for non-local projection operator         1833
 Maximum index for augmentation-charges          918 (set IRDMAX)


--------------------------------------------------------------------------------------------------------


 First call to EWALD:  gamma=   0.407
 Maximum number of real-space cells 3x 3x 3
 Maximum number of reciprocal cells 3x 3x 2

    FEWALD:  cpu time      0.0005: real time      0.0005


--------------------------------------- Iteration      1(   1)  ---------------------------------------


    POTLOK:  cpu time      0.0099: real time      0.0615
    SETDIJ:  cpu time      0.0019: real time      0.0019
     EDDAV:  cpu time      0.2711: real time      0.2712
       DOS:  cpu time      0.0004: real time      0.0005
    --------------------------------------------
      LOOP:  cpu time      0.2833: real time      0.3351

 eigenvalue-minimisations  :   968
 total energy-change (2. order) : 0.2180986E+03  (-0.1149934E+04)
 number of electron      27.0000000 magnetization 
 augmentation part       27.0000000 magnetization 

 Free energy of the ion-electron system (eV)
  ---------------------------------------------------
  alpha Z        PSCENC =        48.60074587
  Ewald energy   TEWEN  =     -1743.61278508
  -Hartree energ DENC   =      -904.08459159
  -exchange      EXHF   =         0.00000000
  -V(xc)+E(xc)   XCENC  =        93.21602592
  PAW double counting   =      2288.71403020    -2411.32759722
  entropy T*S    EENTRO =        -0.00099813
  eigenvalues    EBANDS =       -89.36267647
  atomic energy  EATOM  =      2935.95644725
  Solvation  Ediel_sol  =         0.00000000
  ---------------------------------------------------
  free energy    TOTEN  =       218.09860075 eV

  energy without entropy =      218.09959887  energy(sigma->0) =      218.09909981


--------------------------------------------------------------------------------------------------------




--------------------------------------- Iteration      1(   2)  ---------------------------------------


     EDDAV:  cpu time      0.2764: real time      0.2766
       DOS:  cpu time      0.0003: real time      0.0004
    --------------------------------------------
      LOOP:  cpu time      0.2767: real time      0.2770

 eigenvalue-minimisations  :  1000
 total energy-change (2. order) :-0.2041065E+03  (-0.1960864E+03)
 number of electron      27.0000000 magnetization 
 augmentation part       27.0000000 magnetization 

 Free energy of the ion-electron system (eV)
  ---------------------------------------------------
  alpha Z        PSCENC =        48.60074587
  Ewald energy   TEWEN  =     -1743.61278508
  -Hartree energ DENC   =      -904.08459159
  -exchange      EXHF   =         0.00000000
  -V(xc)+E(xc)   XCENC  =        93.21602592
  PAW double counting   =      2288.71403020    -2411.32759722
  entropy T*S    EENTRO =        -0.00453573
  eigenvalues    EBANDS =      -293.46566482
  atomic energy  EATOM  =      2935.95644725
  Solvation  Ediel_sol  =         0.00000000
  ---------------------------------------------------
  free energy    TOTEN  =        13.99207480 eV

  energy without entropy =       13.99661053  energy(sigma->0) =       13.99434267


--------------------------------------------------------------------------------------------------------




--------------------------------------- Iteration      1(   3)  ---------------------------------------


     EDDAV:  cpu time      0.3340: real time      0.3342
       DOS:  cpu time      0.0003: real time      0.0004
    --------------------------------------------
      LOOP:  cpu time      0.3343: real time      0.3346

 eigenvalue-minimisations  :  1232
 total energy-change (2. order) :-0.2330504E+02  (-0.2311595E+02)
 number of electron      27.0000000 magnetization 
 augmentation part       27.0000000 magnetization 

 Free energy of the ion-electron system (eV)
  ---------------------------------------------------
  alpha Z        PSCENC =        48.60074587
  Ewald energy   TEWEN  =     -1743.61278508
  -Hartree energ DENC   =      -904.08459159
  -exchange      EXHF   =         0.00000000
  -V(xc)+E(xc)   XCENC  =        93.21602592
  PAW double counting   =      2288.71403020    -2411.32759722
  entropy T*S    EENTRO =        -0.00276773
  eigenvalues    EBANDS =      -316.77247341
  atomic energy  EATOM  =      2935.95644725
  Solvation  Ediel_sol  =         0.00000000
  ---------------------------------------------------
  free energy    TOTEN  =        -9.31296580 eV

  energy without entropy =       -9.31019806  energy(sigma->0) =       -9.31158193


--------------------------------------------------------------------------------------------------------




--------------------------------------- Iteration      1(   4)  ---------------------------------------


     EDDAV:  cpu time      0.2890: real time      0.2892
       DOS:  cpu time      0.0003: real time      0.0004
    --------------------------------------------
      LOOP:  cpu time      0.2893: real time      0.2896

 eigenvalue-minimisations  :  1056
 total energy-change (2. order) :-0.7325321E+00  (-0.7321930E+00)
 number of electron      27.0000000 magnetization 
 augmentation part       27.0000000 magnetization 

 Free energy of the ion-electron system (eV)
  ---------------------------------------------------
  alpha Z        PSCENC =        48.60074587
  Ewald energy   TEWEN  =     -1743.61278508
  -Hartree energ DENC   =      -904.08459159
  -exchange      EXHF   =         0.00000000
  -V(xc)+E(xc)   XCENC  =        93.21602592
  PAW double counting   =      2288.71403020    -2411.32759722
  entropy T*S    EENTRO =        -0.00291959
  eigenvalues    EBANDS =      -317.50485361
  atomic energy  EATOM  =      2935.95644725
  Solvation  Ediel_sol  =         0.00000000
  ---------------------------------------------------
  free energy    TOTEN  =       -10.04549785 eV

  energy without entropy =      -10.04257826  energy(sigma->0) =      -10.04403806


--------------------------------------------------------------------------------------------------------




--------------------------------------- Iteration      1(   5)  ---------------------------------------


     EDDAV:  cpu time      0.3489: real time      0.3491
       DOS:  cpu time      0.0003: real time      0.0004
    CHARGE:  cpu time      0.0172: real time      0.0172
    MIXING:  cpu time      0.0004: real time      0.0005
    --------------------------------------------
      LOOP:  cpu time      0.3668: real time      0.3672

 eigenvalue-minimisations  :  1288
 total energy-change (2. order) :-0.1981139E-01  (-0.1981027E-01)
 number of electron      26.9999932 magnetization 
 augmentation part       10.8764415 magnetization 

 Broyden mixing:
  rms(total) = 0.48270E+00    rms(broyden)= 0.48269E+00
  rms(prec ) = 0.11159E+01
  weight for this iteration     100.00

 Free energy of the ion-electron system (eV)
  ---------------------------------------------------
  alpha Z        PSCENC =        48.60074587
  Ewald energy   TEWEN  =     -1743.61278508
  -Hartree energ DENC   =      -904.08459159
  -exchange      EXHF   =         0.00000000
  -V(xc)+E(xc)   XCENC  =        93.21602592
  PAW double counting   =      2288.71403020    -2411.32759722
  entropy T*S    EENTRO =        -0.00291677
  eigenvalues    EBANDS =      -317.52466783
  atomic energy  EATOM  =      2935.95644725
  Solvation  Ediel_sol  =         0.00000000
  ---------------------------------------------------
  free energy    TOTEN  =       -10.06530924 eV

  energy without entropy =      -10.06239248  energy(sigma->0) =      -10.06385086


--------------------------------------------------------------------------------------------------------




--------------------------------------- Iteration      1(   6)  ---------------------------------------


    POTLOK:  cpu time      0.0088: real time      0.0090
    SETDIJ:  cpu time      0.0016: real time      0.0016
     EDDAV:  cpu time      0.3462: real time      0.3462
       DOS:  cpu time      0.0003: real time      0.0004
    CHARGE:  cpu time      0.0169: real time      0.0169
    MIXING:  cpu time      0.0005: real time      0.0005
    --------------------------------------------
      LOOP:  cpu time      0.3744: real time      0.3747

 eigenvalue-minimisations  :  1256
 total energy-change (2. order) : 0.6322512E+00  (-0.2465361E+00)
 number of electron      26.9999932 magnetization 
 augmentation part       10.9230288 magnetization 

 Broyden mixing:
  rms(total) = 0.32327E+00    rms(broyden)= 0.32327E+00
  rms(prec ) = 0.41446E+00
  weight for this iteration     100.00

 eigenvalues of (default mixing * dielectric matrix)
  average eigenvalue GAMMA=   1.3551
  1.3551

 Free energy of the ion-electron system (eV)
  ---------------------------------------------------
  alpha Z        PSCENC =        48.60074587
  Ewald energy   TEWEN  =     -1743.61278508
  -Hartree energ DENC   =      -901.62063891
  -exchange      EXHF   =         0.00000000
  -V(xc)+E(xc)   XCENC  =        93.47308833
  PAW double counting   =      2406.55589962    -2528.41026111
  entropy T*S    EENTRO =        -0.00125970
  eigenvalues    EBANDS =      -320.37429427
  atomic energy  EATOM  =      2935.95644725
  Solvation  Ediel_sol  =         0.00000000
  ---------------------------------------------------
  free energy    TOTEN  =        -9.43305801 eV

  energy without entropy =       -9.43179830  energy(sigma->0) =       -9.43242816


--------------------------------------------------------------------------------------------------------




--------------------------------------- Iteration      1(   7)  ---------------------------------------


    POTLOK:  cpu time      0.0091: real time      0.0092
    SETDIJ:  cpu time      0.0016: real time      0.0016
     EDDAV:  cpu time      0.3408: real time      0.3408
       DOS:  cpu time      0.0004: real time      0.0005
    CHARGE:  cpu time      0.0169: real time      0.0169
    MIXING:  cpu time      0.0005: real time      0.0005
    --------------------------------------------
      LOOP:  cpu time      0.3692: real time      0.3694

 eigenvalue-minimisations  :  1256
 total energy-change (2. order) : 0.2156888E-01  (-0.1317380E-01)
 number of electron      26.9999932 magnetization 
 augmentation part       10.9220389 magnetization 

 Broyden mixing:
  rms(total) = 0.19236E+00    rms(broyden)= 0.19236E+00
  rms(prec ) = 0.24985E+00
  weight for this iteration     100.00

 eigenvalues of (default mixing * dielectric matrix)
  average eigenvalue GAMMA=   1.7570
  1.0940  2.4200

 Free energy of the ion-electron system (eV)
  ---------------------------------------------------
  alpha Z        PSCENC =        48.60074587
  Ewald energy   TEWEN  =     -1743.61278508
  -Hartree energ DENC   =      -900.35346242
  -exchange      EXHF   =         0.00000000
  -V(xc)+E(xc)   XCENC  =        93.48204412
  PAW double counting   =      2533.69312163    -2656.11679740
  entropy T*S    EENTRO =        -0.00121377
  eigenvalues    EBANDS =      -321.05958934
  atomic energy  EATOM  =      2935.95644725
  Solvation  Ediel_sol  =         0.00000000
  ---------------------------------------------------
  free energy    TOTEN  =        -9.41148913 eV

  energy without entropy =       -9.41027536  energy(sigma->0) =       -9.41088225


--------------------------------------------------------------------------------------------------------




--------------------------------------- Iteration      1(   8)  ---------------------------------------


    POTLOK:  cpu time      0.0091: real time      0.0093
    SETDIJ:  cpu time      0.0016: real time      0.0016
     EDDAV:  cpu time      0.3305: real time      0.3307
       DOS:  cpu time      0.0003: real time      0.0004
    CHARGE:  cpu time      0.0165: real time      0.0165
    MIXING:  cpu time      0.0004: real time      0.0004
    --------------------------------------------
      LOOP:  cpu time      0.3584: real time      0.3588

 eigenvalue-minimisations  :  1224
 total energy-change (2. order) : 0.1529041E-01  (-0.3222645E-02)
 number of electron      26.9999932 magnetization 
 augmentation part       10.9175713 magnetization 

 Broyden mixing:
  rms(total) = 0.46908E-01    rms(broyden)= 0.46908E-01
  rms(prec ) = 0.64710E-01
  weight for this iteration     100.00

 eigenvalues of (default mixing * dielectric matrix)
  average eigenvalue GAMMA=   1.3877
  2.1306  1.0163  1.0163

 Free energy of the ion-electron system (eV)
  ---------------------------------------------------
  alpha Z        PSCENC =        48.60074587
  Ewald energy   TEWEN  =     -1743.61278508
  -Hartree energ DENC   =      -898.92520829
  -exchange      EXHF   =         0.00000000
  -V(xc)+E(xc)   XCENC  =        93.48647411
  PAW double counting   =      2703.96918299    -2827.35703305
  entropy T*S    EENTRO =        -0.00125044
  eigenvalues    EBANDS =      -321.51277207
  atomic energy  EATOM  =      2935.95644725
  Solvation  Ediel_sol  =         0.00000000
  ---------------------------------------------------
  free energy    TOTEN  =        -9.39619872 eV

  energy without entropy =       -9.39494827  energy(sigma->0) =       -9.39557350


--------------------------------------------------------------------------------------------------------




--------------------------------------- Iteration      1(   9)  ---------------------------------------


    POTLOK:  cpu time      0.0087: real time      0.0089
    SETDIJ:  cpu time      0.0015: real time      0.0015
     EDDAV:  cpu time      0.3169: real time      0.3169
       DOS:  cpu time      0.0003: real time      0.0004
    CHARGE:  cpu time      0.0162: real time      0.0162
    MIXING:  cpu time      0.0004: real time      0.0004
    --------------------------------------------
      LOOP:  cpu time      0.3440: real time      0.3443

 eigenvalue-minimisations  :  1192
 total energy-change (2. order) : 0.5639222E-03  (-0.5892123E-03)
 number of electron      26.9999932 magnetization 
 augmentation part       10.9198241 magnetization 

 Broyden mixing:
  rms(total) = 0.20234E-01    rms(broyden)= 0.20234E-01
  rms(prec ) = 0.30009E-01
  weight for this iteration     100.00

 eigenvalues of (default mixing * dielectric matrix)
  average eigenvalue GAMMA=   1.6063
  2.1605  2.1605  1.0521  1.0521

 Free energy of the ion-electron system (eV)
  ---------------------------------------------------
  alpha Z        PSCENC =        48.60074587
  Ewald energy   TEWEN  =     -1743.61278508
  -Hartree energ DENC   =      -898.90392932
  -exchange      EXHF   =         0.00000000
  -V(xc)+E(xc)   XCENC  =        93.49257779
  PAW double counting   =      2682.41801700    -2805.70322413
  entropy T*S    EENTRO =        -0.00126574
  eigenvalues    EBANDS =      -321.64221844
  atomic energy  EATOM  =      2935.95644725
  Solvation  Ediel_sol  =         0.00000000
  ---------------------------------------------------
  free energy    TOTEN  =        -9.39563480 eV

  energy without entropy =       -9.39436906  energy(sigma->0) =       -9.39500193


--------------------------------------------------------------------------------------------------------




--------------------------------------- Iteration      1(  10)  ---------------------------------------


    POTLOK:  cpu time      0.0086: real time      0.0088
    SETDIJ:  cpu time      0.0015: real time      0.0015
     EDDAV:  cpu time      0.2851: real time      0.2851
       DOS:  cpu time      0.0003: real time      0.0003
    CHARGE:  cpu time      0.0162: real time      0.0163
    MIXING:  cpu time      0.0004: real time      0.0004
    --------------------------------------------
      LOOP:  cpu time      0.3121: real time      0.3124

 eigenvalue-minimisations  :  1088
 total energy-change (2. order) :-0.3507958E-03  (-0.7553178E-04)
 number of electron      26.9999932 magnetization 
 augmentation part       10.9200051 magnetization 

 Broyden mixing:
  rms(total) = 0.44059E-02    rms(broyden)= 0.44058E-02
  rms(prec ) = 0.90558E-02
  weight for this iteration     100.00

 eigenvalues of (default mixing * dielectric matrix)
  average eigenvalue GAMMA=   1.6422
  2.8656  2.5165  1.0060  1.0060  0.8170

 Free energy of the ion-electron system (eV)
  ---------------------------------------------------
  alpha Z        PSCENC =        48.60074587
  Ewald energy   TEWEN  =     -1743.61278508
  -Hartree energ DENC   =      -898.78566591
  -exchange      EXHF   =         0.00000000
  -V(xc)+E(xc)   XCENC  =        93.48629340
  PAW double counting   =      2665.54508961    -2788.86272867
  entropy T*S    EENTRO =        -0.00127527
  eigenvalues    EBANDS =      -321.72210680
  atomic energy  EATOM  =      2935.95644725
  Solvation  Ediel_sol  =         0.00000000
  ---------------------------------------------------
  free energy    TOTEN  =        -9.39598559 eV

  energy without entropy =       -9.39471032  energy(sigma->0) =       -9.39534796


--------------------------------------------------------------------------------------------------------




--------------------------------------- Iteration      1(  11)  ---------------------------------------


    POTLOK:  cpu time      0.0086: real time      0.0087
    SETDIJ:  cpu time      0.0015: real time      0.0015
     EDDAV:  cpu time      0.3533: real time      0.3534
       DOS:  cpu time      0.0003: real time      0.0004
    CHARGE:  cpu time      0.0164: real time      0.0164
    MIXING:  cpu time      0.0004: real time      0.0004
    --------------------------------------------
      LOOP:  cpu time      0.3806: real time      0.3808

 eigenvalue-minimisations  :  1376
 total energy-change (2. order) :-0.1749020E-04  (-0.1609819E-04)
 number of electron      26.9999932 magnetization 
 augmentation part       10.9203099 magnetization 

 Broyden mixing:
  rms(total) = 0.26179E-02    rms(broyden)= 0.26179E-02
  rms(prec ) = 0.32470E-02
  weight for this iteration     100.00

 eigenvalues of (default mixing * dielectric matrix)
  average eigenvalue GAMMA=   1.6530
  3.0578  2.2370  1.0094  1.0094  1.0304  1.5738

 Free energy of the ion-electron system (eV)
  ---------------------------------------------------
  alpha Z        PSCENC =        48.60074587
  Ewald energy   TEWEN  =     -1743.61278508
  -Hartree energ DENC   =      -898.77145017
  -exchange      EXHF   =         0.00000000
  -V(xc)+E(xc)   XCENC  =        93.48812577
  PAW double counting   =      2662.70973560    -2786.02344473
  entropy T*S    EENTRO =        -0.00128722
  eigenvalues    EBANDS =      -321.74209037
  atomic energy  EATOM  =      2935.95644725
  Solvation  Ediel_sol  =         0.00000000
  ---------------------------------------------------
  free energy    TOTEN  =        -9.39600308 eV

  energy without entropy =       -9.39471586  energy(sigma->0) =       -9.39535947


--------------------------------------------------------------------------------------------------------




--------------------------------------- Iteration      1(  12)  ---------------------------------------


    POTLOK:  cpu time      0.0085: real time      0.0086
    SETDIJ:  cpu time      0.0015: real time      0.0015
     EDDAV:  cpu time      0.2974: real time      0.2976
       DOS:  cpu time      0.0003: real time      0.0003
    CHARGE:  cpu time      0.0163: real time      0.0163
    MIXING:  cpu time      0.0004: real time      0.0004
    --------------------------------------------
      LOOP:  cpu time      0.3244: real time      0.3249

 eigenvalue-minimisations  :  1136
 total energy-change (2. order) :-0.5964258E-05  (-0.1929254E-05)
 number of electron      26.9999932 magnetization 
 augmentation part       10.9202490 magnetization 

 Broyden mixing:
  rms(total) = 0.13816E-02    rms(broyden)= 0.13816E-02
  rms(prec ) = 0.15911E-02
  weight for this iteration     100.00

 eigenvalues of (default mixing * dielectric matrix)
  average eigenvalue GAMMA=   1.6789
  3.3198  2.3646  2.2070  1.1071  0.9987  0.9987  0.7561

 Free energy of the ion-electron system (eV)
  ---------------------------------------------------
  alpha Z        PSCENC =        48.60074587
  Ewald energy   TEWEN  =     -1743.61278508
  -Hartree energ DENC   =      -898.80199698
  -exchange      EXHF   =         0.00000000
  -V(xc)+E(xc)   XCENC  =        93.49012134
  PAW double counting   =      2664.68359335    -2787.99670547
  entropy T*S    EENTRO =        -0.00129200
  eigenvalues    EBANDS =      -321.71413733
  atomic energy  EATOM  =      2935.95644725
  Solvation  Ediel_sol  =         0.00000000
  ---------------------------------------------------
  free energy    TOTEN  =        -9.39600905 eV

  energy without entropy =       -9.39471704  energy(sigma->0) =       -9.39536304


--------------------------------------------------------------------------------------------------------




--------------------------------------- Iteration      1(  13)  ---------------------------------------


    POTLOK:  cpu time      0.0085: real time      0.0087
    SETDIJ:  cpu time      0.0015: real time      0.0015
     EDDAV:  cpu time      0.2771: real time      0.2771
       DOS:  cpu time      0.0003: real time      0.0004
    CHARGE:  cpu time      0.0171: real time      0.0171
    MIXING:  cpu time      0.0006: real time      0.0006
    --------------------------------------------
      LOOP:  cpu time      0.3051: real time      0.3053

 eigenvalue-minimisations  :   992
 total energy-change (2. order) :-0.1484465E-05  (-0.2814600E-06)
 number of electron      26.9999932 magnetization 
 augmentation part       10.9202283 magnetization 

 Broyden mixing:
  rms(total) = 0.42829E-03    rms(broyden)= 0.42829E-03
  rms(prec ) = 0.48855E-03
  weight for this iteration     100.00

 eigenvalues of (default mixing * dielectric matrix)
  average eigenvalue GAMMA=   1.7011
  3.3759  2.3924  2.3924  1.3572  1.2333  0.9891  0.9891  0.8795

 Free energy of the ion-electron system (eV)
  ---------------------------------------------------
  alpha Z        PSCENC =        48.60074587
  Ewald energy   TEWEN  =     -1743.61278508
  -Hartree energ DENC   =      -898.81489735
  -exchange      EXHF   =         0.00000000
  -V(xc)+E(xc)   XCENC  =        93.49027905
  PAW double counting   =      2663.70649415    -2787.01455398
  entropy T*S    EENTRO =        -0.00129028
  eigenvalues    EBANDS =      -321.70645017
  atomic energy  EATOM  =      2935.95644725
  Solvation  Ediel_sol  =         0.00000000
  ---------------------------------------------------
  free energy    TOTEN  =        -9.39601053 eV

  energy without entropy =       -9.39472025  energy(sigma->0) =       -9.39536539


--------------------------------------------------------------------------------------------------------




--------------------------------------- Iteration      1(  14)  ---------------------------------------


    POTLOK:  cpu time      0.0089: real time      0.0090
    SETDIJ:  cpu time      0.0016: real time      0.0016
     EDDAV:  cpu time      0.2593: real time      0.2594
       DOS:  cpu time      0.0003: real time      0.0004
    --------------------------------------------
      LOOP:  cpu time      0.2700: real time      0.2703

 eigenvalue-minimisations  :   920
 total energy-change (2. order) : 0.2763863E-07  (-0.3924158E-07)
 number of electron      26.9999932 magnetization 
 augmentation part       10.9202283 magnetization 

 Free energy of the ion-electron system (eV)
  ---------------------------------------------------
  alpha Z        PSCENC =        48.60074587
  Ewald energy   TEWEN  =     -1743.61278508
  -Hartree energ DENC   =      -898.81517213
  -exchange      EXHF   =         0.00000000
  -V(xc)+E(xc)   XCENC  =        93.49045769
  PAW double counting   =      2663.92353131    -2787.23040375
  entropy T*S    EENTRO =        -0.00129036
  eigenvalues    EBANDS =      -321.70754131
  atomic energy  EATOM  =      2935.95644725
  Solvation  Ediel_sol  =         0.00000000
  ---------------------------------------------------
  free energy    TOTEN  =        -9.39601050 eV

  energy without entropy =       -9.39472015  energy(sigma->0) =       -9.39536532


--------------------------------------------------------------------------------------------------------




 average (electrostatic) potential at core
  the test charge radii are     0.9254  1.0894  0.9698
  (the norm of the test charge is              1.0000)
       1 -47.0510       2-103.6842       3 -87.6504



 E-fermi :   3.8643     XC(G=0):  -8.5030     alpha+bet : -8.9640

 Fermi energy:         3.8642852260

 k-point     1 :       0.0000    0.0000    0.0000
  band No.  band energies     occupation 
      1     -21.2552      2.00000
      2     -21.2552      2.00000
      3     -21.2528      2.00000
      4     -18.1144      2.00000
      5     -18.1144      2.00000
      6     -17.9896      2.00000
      7     -17.9796      2.00000
      8     -17.9796      2.00000
      9      -8.8823      2.00000
     10      -2.9168      2.00000
     11       0.3374      2.00000
     12       0.3374      2.00000
     13       2.8898      2.00000
     14       4.0284      0.00000
     15       4.0284      0.00000
     16       6.4468      0.00000
     17       7.9675      0.00000
     18       9.6892      0.00000
     19      12.7962      0.00000
     20      12.7962      0.00000
     21      14.3608      0.00000
     22      14.3608      0.00000
     23      14.4830      0.00000
     24      15.8234      0.00000

 k-point     2 :       0.2000    0.0000    0.0000
  band No.  band energies     occupation 
      1     -21.2554      2.00000
      2     -21.2548      2.00000
      3     -21.2528      2.00000
      4     -18.1168      2.00000
      5     -18.1144      2.00000
      6     -17.9880      2.00000
      7     -17.9797      2.00000
      8     -17.9797      2.00000
      9      -8.7802      2.00000
     10      -3.4364      2.00000
     11       0.1121      2.00000
     12       0.8085      2.00000
     13       2.9664      2.00000
     14       3.7353      1.99974
     15       4.6598      0.00000
     16       7.5657      0.00000
     17       7.7372      0.00000
     18      10.0949      0.00000
     19      11.2405      0.00000
     20      12.1370      0.00000
     21      13.8918      0.00000
     22      13.8947      0.00000
     23      13.9714      0.00000
     24      15.4333      0.00000

 k-point     3 :       0.4000    0.0000    0.0000
  band No.  band energies     occupation 
      1     -21.2560      2.00000
      2     -21.2542      2.00000
      3     -21.2529      2.00000
      4     -18.1208      2.00000
      5     -18.1144      2.00000
      6     -17.9852      2.00000
      7     -17.9798      2.00000
      8     -17.9798      2.00000
      9      -8.5955      2.00000
     10      -4.0986      2.00000
     11      -0.1777      2.00000
     12       1.0094      2.00000
     13       3.1018      2.00000
     14       4.3979      0.00000
     15       5.8637      0.00000
     16       7.3738      0.00000
     17       8.2487      0.00000
     18       9.8788      0.00000
     19      10.7158      0.00000
     20      11.8196      0.00000
     21      12.5737      0.00000
     22      13.2305      0.00000
     23      13.4510      0.00000
     24      14.3249      0.00000

 k-point     4 :       0.2000    0.2000    0.0000
  band No.  band energies     occupation 
      1     -21.2556      2.00000
      2     -21.2544      2.00000
      3     -21.2528      2.00000
      4     -18.1192      2.00000
      5     -18.1152      2.00000
      6     -17.9858      2.00000
      7     -17.9799      2.00000
      8     -17.9796      2.00000
      9      -8.6337      2.00000
     10      -3.9571      2.00000
     11      -0.4480      2.00000
     12       1.6035      2.00000
     13       3.0746      2.00000
     14       3.7102      1.99999
     15       5.6665      0.00000
     16       7.4478      0.00000
     17       8.4188      0.00000
     18       9.7282      0.00000
     19      11.3516      0.00000
     20      11.5018      0.00000
     21      12.7516      0.00000
     22      12.8079      0.00000
     23      14.2284      0.00000
     24      14.6527      0.00000

 k-point     5 :       0.4000    0.2000    0.0000
  band No.  band energies     occupation 
      1     -21.2558      2.00000
      2     -21.2545      2.00000
      3     -21.2529      2.00000
      4     -18.1204      2.00000
      5     -18.1161      2.00000
      6     -17.9845      2.00000
      7     -17.9800      2.00000
      8     -17.9796      2.00000
      9      -8.5346      2.00000
     10      -4.2298      2.00000
     11      -0.7832      2.00000
     12       2.0034      2.00000
     13       3.1467      2.00000
     14       4.2184      0.00000
     15       5.8464      0.00000
     16       7.2742      0.00000
[...]


    CHARGE:  cpu time      0.0206: real time      0.0206
    FORLOC:  cpu time      0.0008: real time      0.0008
    FORNL :  cpu time      0.1055: real time      0.1055
    STRESS:  cpu time      0.3182: real time      0.3183
    FORCOR:  cpu time      0.0091: real time      0.0091
    FORHAR:  cpu time      0.0027: real time      0.0027
    MIXING:  cpu time      0.0004: real time      0.0004
    OFIELD:  cpu time      0.0000: real time      0.0000

  FORCE on cell =-STRESS in cart. coord.  units (eV):
  Direction    XX          YY          ZZ          XY          YZ          ZX
  --------------------------------------------------------------------------------------
  Alpha Z    48.60075    48.60075    48.60075
  Ewald    -436.85936  -436.85995  -869.92269    -0.00006    -0.00000    -0.00000
  Hartree   384.69185   384.69186   129.40838    -0.00003     0.00000    -0.00000
  E(xc)    -128.93651  -128.93667  -129.40720    -0.00013     0.00000     0.00000
  Local    -406.67301  -406.67267   264.35970    -0.00002     0.00000     0.00000
  n-local   120.68426   120.70477   122.60215     1.10608     0.31730     0.34470
  augment   202.73202   202.73227   201.81385     0.00020     0.00000    -0.00000
  Kinetic   215.59439   215.55027   232.48476    -2.99326    -0.04424    -0.05949
  Fock        0.00000     0.00000     0.00000     0.00000     0.00000     0.00000
  -------------------------------------------------------------------------------------
  Total      -0.17749    -0.17749    -0.06032    -0.00000    -0.00000    -0.00000
  in kB      -3.44223    -3.44223    -1.16976    -0.00000    -0.00000    -0.00000
  external pressure =       -2.68 kB  Pullay stress =        0.00 kB


 VOLUME and BASIS-vectors are now :
 -----------------------------------------------------------------------------
  energy-cutoff  :      400.00
  volume of cell :       82.61
      direct lattice vectors                 reciprocal lattice vectors
     5.086855820  0.000000000  0.000000000     0.196585088  0.113498454 -0.000000000
    -2.543427910  4.405346366  0.000000000     0.000000000  0.226996907  0.000000000
     0.000000000  0.000000000  3.686528404     0.000000000 -0.000000000  0.271257913

  length of vectors
     5.086855820  5.086855820  3.686528404     0.226996907  0.226996907  0.271257913


 FORCES acting on ions
    electron-ion (+dipol)            ewald-force                    non-local-force                 convergence-correction
 -----------------------------------------------------------------------------------------------
   -.768E-04 0.447E-04 -.685E+00   0.149E-03 -.208E-03 0.645E+00   0.663E-18 -.913E-18 0.439E-01   0.360E-08 -.314E-08 0.288E-03
   -.509E-03 0.357E-03 -.120E+01   -.277E-03 0.161E-04 0.129E+01   0.198E-15 -.716E-16 -.101E+00   0.475E-08 -.549E-08 -.199E-02
   -.655E-04 0.869E-03 0.183E+01   0.128E-03 0.192E-03 -.193E+01   0.218E-15 0.448E-16 0.125E+00   -.165E-08 0.909E-09 -.100E-01
 -----------------------------------------------------------------------------------------------
   -.652E-03 0.127E-02 -.515E-01   -.118E-14 -.141E-15 -.888E-15   0.417E-15 -.277E-16 0.674E-01   0.670E-08 -.772E-08 -.117E-01


 POSITION                                       TOTAL-FORCE (eV/Angst)
 -----------------------------------------------------------------------------------
      0.00000      0.00000      0.00000        -0.000000      0.000000      0.002120
      2.54343      1.46845      0.00000         0.000000     -0.000000     -0.013786
     -0.00000      2.93690     -0.03000        -0.000000      0.000000      0.011666
 -----------------------------------------------------------------------------------
    total drift:                               -0.000652      0.001271      0.004150


--------------------------------------------------------------------------------------------------------



  FREE ENERGIE OF THE ION-ELECTRON SYSTEM (eV)
  ---------------------------------------------------
  free  energy   TOTEN  =        -9.39582535 eV

  energy  without entropy=       -9.39453931  energy(sigma->0) =       -9.39518233

 d Force =-0.1402277E-03[-0.175E-03,-0.105E-03]  d Energy =-0.1582809E-03 0.181E-04
 d Force = 0.2175600E-01[ 0.290E-01, 0.145E-01]  d Ewald  = 0.2175726E-01-0.125E-05


--------------------------------------------------------------------------------------------------------


    POTLOK:  cpu time      0.0103: real time      0.0103


--------------------------------------------------------------------------------------------------------


 Finite differences progress:
  Degree of freedom:  12/ 12
  Displacement:        4/  4
  Total:              48/ 48


--------------------------------------------------------------------------------------------------------



  ELASTIC MODULI  (kBar)
 Direction    XX          YY          ZZ          XY          YZ          ZX
 --------------------------------------------------------------------------------
 XX         642.2925    611.0514    -29.9982     -0.0000     -0.0000     -0.0000
 YY         635.8261    666.1210    -19.9668     -0.0000     -0.0000     -0.0000
 ZZ         -43.5674    -43.5674    406.0528      0.0000     -0.0000      0.0000
 XY           0.0517      0.0693     -0.2684     53.4368     -0.0000     -0.0000
 YZ           1.1043      1.2347      1.1082     -0.0000     -1.8894     -0.0000
 ZX           1.4730      1.5165      1.5302     -0.0000     -0.0000     -6.4058
 --------------------------------------------------------------------------------


  SYMMETRIZED ELASTIC MODULI (kBar)
 Direction    XX          YY          ZZ          XY          YZ          ZX
 --------------------------------------------------------------------------------
 XX         673.2332    604.4123    -34.2750      0.0000      0.0000      0.0000
 YY         604.4123    673.2332    -34.2750      0.0000      0.0000      0.0000
 ZZ         -34.2750    -34.2750    406.0528     -0.0000     -0.0000      0.0000
 XY           0.0000      0.0000     -0.0000     34.4104      0.0000      0.0000
 YZ           0.0000      0.0000     -0.0000     -0.0000     -4.1476     -0.0000
 ZX           0.0000     -0.0000      0.0000      0.0000      0.0000     -4.1476
 --------------------------------------------------------------------------------

 INTERNAL STRAIN TENSORS FROM STRAINED CELLS
 ============================================

 INTERNAL STRAIN TENSOR FOR ION    1 for displacements in x,y,z  (eV/Angst):
          X           Y           Z          XY          YZ          ZX
  --------------------------------------------------------------------------------
  x    -0.00000     0.00000    -0.00000     3.45460    -0.00000     0.00000
  y     3.01347    -2.85030     0.00000    -0.00262     0.00041    -0.00019
  z    -0.00000     0.00000    -0.00000     0.00000     0.29966    -0.00000

 INTERNAL STRAIN TENSOR FOR ION    2 for displacements in x,y,z  (eV/Angst):
          X           Y           Z          XY          YZ          ZX
  --------------------------------------------------------------------------------
  x     0.00000    -0.00000     0.00000    -6.49023     0.00000    -0.00000
  y    -5.93679     6.03166    -0.00000     0.00107    -0.00104     0.00029
  z    -0.00000    -0.00000    -0.00000     0.00000    -0.40927     0.00000

 INTERNAL STRAIN TENSOR FOR ION    3 for displacements in x,y,z  (eV/Angst):
          X           Y           Z          XY          YZ          ZX
  --------------------------------------------------------------------------------
  x     0.00000     0.00000    -0.00000     3.03563     0.00000     0.00000
  y     2.92333    -3.18135     0.00000     0.00155     0.00063    -0.00010
  z     0.00000    -0.00000     0.00000    -0.00000     0.10961    -0.00000

 INTERNAL STRAIN TENSORS FROM DISPLACED ATOMS
 ============================================

 INTERNAL STRAIN TENSOR FOR ION    1 for displacements in x,y,z  (eV/Angst):
          X           Y           Z          XY          YZ          ZX
  --------------------------------------------------------------------------------
  x     0.00000    -0.00000     0.00000     3.11402     0.00000     0.00000
  y     3.11402    -3.11402     0.00000    -0.00000     0.00000     0.00000
  z     0.00000     0.00000     0.00000     0.00000     0.00000    -0.00000

 INTERNAL STRAIN TENSOR FOR ION    2 for displacements in x,y,z  (eV/Angst):
          X           Y           Z          XY          YZ          ZX
  --------------------------------------------------------------------------------
  x    -0.00000     0.00000     0.00000    -6.04583     0.00000     0.00000
  y    -6.04583     6.04583     0.00000     0.00000     0.00000     0.00000
  z     0.00000     0.00000     0.00000     0.00000     0.00000     0.00000

 INTERNAL STRAIN TENSOR FOR ION    3 for displacements in x,y,z  (eV/Angst):
          X           Y           Z          XY          YZ          ZX
  --------------------------------------------------------------------------------
  x     0.00000    -0.00000     0.00000     3.08922     0.00000     0.00000
  y     3.08922    -3.08922     0.00000    -0.00000     0.00000     0.00000
  z     0.00000     0.00000     0.00000    -0.00000     0.00000     0.00000


--------------------------------------------------------------------------------------------------------



 Eigenvectors and eigenvalues of the dynamical matrix
 ----------------------------------------------------


   1 f  =    6.108094 THz    38.378288 2PiTHz  203.744091 cm-1    25.261036 meV
             X         Y         Z           dx          dy          dz
      0.000000  0.000000  0.000000     0.000007   -0.932477   -0.000000  
      2.543429  1.468448  0.000000    -0.000003    0.338811   -0.000000  
     -0.000000  2.936896  0.000000    -0.000001    0.125273   -0.000000  

   2 f  =    6.108094 THz    38.378288 2PiTHz  203.744091 cm-1    25.261036 meV
             X         Y         Z           dx          dy          dz
      0.000000  0.000000  0.000000     0.932477    0.000007    0.000000  
      2.543429  1.468448  0.000000    -0.338811   -0.000003    0.000000  
     -0.000000  2.936896  0.000000    -0.125273   -0.000001   -0.000000  

   3 f  =    2.168484 THz    13.624984 2PiTHz   72.332825 cm-1     8.968123 meV
             X         Y         Z           dx          dy          dz
      0.000000  0.000000  0.000000    -0.000000   -0.000000    0.037726  
      2.543429  1.468448  0.000000    -0.000000   -0.000000    0.397321  
     -0.000000  2.936896  0.000000    -0.000000   -0.000000   -0.916904  

   4 f  =    0.219356 THz     1.378255 2PiTHz    7.316932 cm-1     0.907183 meV
             X         Y         Z           dx          dy          dz
      0.000000  0.000000  0.000000     0.000000    0.000000   -0.304830  
      2.543429  1.468448  0.000000     0.000000    0.000000   -0.869248  
     -0.000000  2.936896  0.000000     0.000000    0.000000   -0.389212  

   5 f  =    0.119890 THz     0.753292 2PiTHz    3.999107 cm-1     0.495826 meV
             X         Y         Z           dx          dy          dz
      0.000000  0.000000  0.000000    -0.004875   -0.356957   -0.000000  
      2.543429  1.468448  0.000000    -0.011081   -0.811304   -0.000000  
     -0.000000  2.936896  0.000000    -0.006321   -0.462797   -0.000000  

   6 f  =    0.119890 THz     0.753292 2PiTHz    3.999107 cm-1     0.495826 meV
             X         Y         Z           dx          dy          dz
      0.000000  0.000000  0.000000     0.356957   -0.004875    0.000000  
      2.543429  1.468448  0.000000     0.811304   -0.011081    0.000000  
     -0.000000  2.936896  0.000000     0.462797   -0.006321    0.000000  

   7 f/i=    3.375073 THz    21.206207 2PiTHz  112.580306 cm-1    13.958173 meV
             X         Y         Z           dx          dy          dz
      0.000000  0.000000  0.000000    -0.055171   -0.000000   -0.000000  
      2.543429  1.468448  0.000000    -0.476309   -0.000001    0.000000  
     -0.000000  2.936896  0.000000     0.877545    0.000001    0.000000  

   8 f/i=    3.375073 THz    21.206207 2PiTHz  112.580306 cm-1    13.958173 meV
             X         Y         Z           dx          dy          dz
      0.000000  0.000000  0.000000    -0.000000    0.055171    0.000000  
      2.543429  1.468448  0.000000    -0.000001    0.476309   -0.000000  
     -0.000000  2.936896  0.000000     0.000001   -0.877545   -0.000000  

   9 f/i=    3.776931 THz    23.731158 2PiTHz  125.984862 cm-1    15.620125 meV
             X         Y         Z           dx          dy          dz
      0.000000  0.000000  0.000000     0.000000    0.000000   -0.951659  
      2.543429  1.468448  0.000000     0.000000    0.000000    0.294183  
     -0.000000  2.936896  0.000000    -0.000000   -0.000000    0.088322  



--------------------------------------------------------------------------------------------------------



 ELASTIC MODULI CONTR FROM IONIC RELAXATION (kBar)
 Direction    XX          YY          ZZ          XY          YZ          ZX
 --------------------------------------------------------------------------------
 XX        -486.2417    486.2417     -0.0000     -0.0000     -0.0000     -0.0000
 YY         486.2417   -486.2417      0.0000      0.0000      0.0000      0.0000
 ZZ          -0.0000      0.0000     -0.0000     -0.0000      0.0000      0.0000
 XY          -0.0000      0.0000     -0.0000   -486.2417      0.0000      0.0000
 YZ          -0.0000      0.0000      0.0000      0.0000     -0.0000     -0.0000
 ZX          -0.0000      0.0000      0.0000      0.0000     -0.0000     -0.0000
 --------------------------------------------------------------------------------


 TOTAL ELASTIC MODULI (kBar)
 Direction    XX          YY          ZZ          XY          YZ          ZX
 --------------------------------------------------------------------------------
 XX         186.9914   1090.6541    -34.2750     -0.0000     -0.0000      0.0000
 YY        1090.6541    186.9914    -34.2750      0.0000      0.0000      0.0000
 ZZ         -34.2750    -34.2750    406.0528     -0.0000     -0.0000      0.0000
 XY          -0.0000      0.0000     -0.0000   -451.8313      0.0000      0.0000
 YZ          -0.0000      0.0000     -0.0000     -0.0000     -4.1476     -0.0000
 ZX          -0.0000     -0.0000      0.0000      0.0000     -0.0000     -4.1476
 --------------------------------------------------------------------------------



--------------------------------------------------------------------------------------------------------


  LATTYP: Found a hexagonal cell.
 ALAT       =     5.0868558200
 C/A-ratio  =     0.7247165115
  
  Lattice vectors:
  
 A1 = (   5.0868558200,   0.0000000000,   0.0000000000)
 A2 = (  -2.5434279100,   4.4053463655,   0.0000000000)
 A3 = (   0.0000000000,   0.0000000000,   3.6865284043)


Analysis of symmetry for initial positions (statically):
=====================================================================
 Subroutine PRICEL returns:
 Original cell was already a primitive cell.
 

 Routine SETGRP: Setting up the symmetry group for a 
 hexagonal supercell.


 Subroutine GETGRP returns: Found 12 space group operations
 (whereof 12 operations were pure point group operations)
 out of a pool of 24 trial point group operations.


The static configuration has the point symmetry D_3h.


Analysis of symmetry for dynamics (positions and initial velocities):
=====================================================================
 Subroutine PRICEL returns:
 Original cell was already a primitive cell.
 

 Routine SETGRP: Setting up the symmetry group for a 
 hexagonal supercell.


 Subroutine GETGRP returns: Found 12 space group operations
 (whereof 12 operations were pure point group operations)
 out of a pool of 24 trial point group operations.


The dynamic configuration has the point symmetry D_3h.


 Subroutine INISYM returns: Found 12 space group operations
 (whereof 12 operations are pure point group operations),
 and found     1 'primitive' translations


 KPOINTS: pymatgen with grid density = 600 / numbe

Automatic generation of k-mesh.
 Grid dimensions read from file:
 generate k-points for:    5    5    7

 Generating k-lattice:

  Cartesian coordinates                     Fractional coordinates (reciprocal lattice)
     0.039317018  0.022699691 -0.000000000     0.200000000  0.000000000  0.000000000
     0.000000000  0.045399381  0.000000000     0.000000000  0.200000000  0.000000000
     0.000000000 -0.000000000  0.038751130     0.000000000  0.000000000  0.142857143

  Length of vectors
     0.045399381  0.045399381  0.038751130

  Shift w.r.t. Gamma in fractional coordinates (k-lattice)
     0.000000000  0.000000000  0.000000000

 
 Subroutine IBZKPT returns following result:
 ===========================================
 
 Found     20 irreducible k-points:
 
 Following reciprocal coordinates:
            Coordinates               Weight
  0.000000  0.000000  0.000000      1.000000
  0.200000  0.000000  0.000000      6.000000
  0.400000  0.000000  0.000000      6.000000
  0.200000  0.200000  0.000000      6.000000
  0.400000  0.200000  0.000000      6.000000
  0.000000  0.000000  0.142857      2.000000
  0.200000  0.000000  0.142857     12.000000
  0.400000  0.000000  0.142857     12.000000
  0.200000  0.200000  0.142857     12.000000
  0.400000  0.200000  0.142857     12.000000
  0.000000  0.000000  0.285714      2.000000
  0.200000  0.000000  0.285714     12.000000
  0.400000  0.000000  0.285714     12.000000
  0.200000  0.200000  0.285714     12.000000
  0.400000  0.200000  0.285714     12.000000
  0.000000  0.000000  0.428571      2.000000
  0.200000  0.000000  0.428571     12.000000
  0.400000  0.000000  0.428571     12.000000
  0.200000  0.200000  0.428571     12.000000
  0.400000  0.200000  0.428571     12.000000
 
 Following cartesian coordinates:
            Coordinates               Weight
  0.000000  0.000000  0.000000      1.000000
  0.039317  0.022700  0.000000      6.000000
  0.078634  0.045399  0.000000      6.000000
  0.039317  0.068099  0.000000      6.000000
  0.078634  0.090799  0.000000      6.000000
  0.000000  0.000000  0.038751      2.000000
  0.039317  0.022700  0.038751     12.000000
  0.078634  0.045399  0.038751     12.000000
  0.039317  0.068099  0.038751     12.000000
  0.078634  0.090799  0.038751     12.000000
  0.000000  0.000000  0.077502      2.000000
  0.039317  0.022700  0.077502     12.000000
  0.078634  0.045399  0.077502     12.000000
  0.039317  0.068099  0.077502     12.000000
  0.078634  0.090799  0.077502     12.000000
  0.000000  0.000000  0.116253      2.000000
  0.039317  0.022700  0.116253     12.000000
  0.078634  0.045399  0.116253     12.000000
  0.039317  0.068099  0.116253     12.000000
  0.078634  0.090799  0.116253     12.000000
 
     LOOP+:  cpu time      2.7460: real time      2.8156
    4ORBIT:  cpu time      0.0000: real time      0.0000

 total amount of memory used by VASP MPI-rank0    34194. kBytes
=======================================================================

   base      :      30000. kBytes
   nonlr-proj:        584. kBytes
   fftplans  :        558. kBytes
   grid      :       1517. kBytes
   one-center:         46. kBytes
   wavefun   :       1489. kBytes

  
  
 General timing and accounting informations for this job:
 ========================================================
  
                  Total CPU time used (sec):      263.789
                            User time (sec):      263.075
                          System time (sec):        0.715
                         Elapsed time (sec):      270.559
  
                   Maximum memory used (kb):      122836.
                   Average memory used (kb):          N/A
  
                          Minor page faults:        32980
                          Major page faults:           49
                 Voluntary context switches:         1329
